 Gaussian 16, Revision C.02,
 Gaussian 16:  ES64L-G16RevC.02  7-Dec-2021

 -------------------------------------------------------------------
 #n M062x/6-31G(d) Opt=tight scf=novaracc int=ultrafine freq=noraman
 -------------------------------------------------------------------

 -------------------------
 cor+_aliph_C8C8_ts_int_s2
 -------------------------
 Symbolic Z-matrix:
 Charge =  1 Multiplicity = 2

 SCF Done:  E(UM062X) =  -767.409413598     A.U. after   25 cycles
 SCF Done:  E(UM062X) =  -767.448991447     A.U. after   20 cycles
 SCF Done:  E(UM062X) =  -767.455572105     A.U. after   18 cycles
 SCF Done:  E(UM062X) =  -767.449047429     A.U. after   18 cycles
 SCF Done:  E(UM062X) =  -767.456026595     A.U. after   15 cycles
 SCF Done:  E(UM062X) =  -767.456533034     A.U. after   17 cycles
 SCF Done:  E(UM062X) =  -767.456751386     A.U. after   14 cycles
 SCF Done:  E(UM062X) =  -767.456733215     A.U. after   13 cycles
 SCF Done:  E(UM062X) =  -767.456798878     A.U. after   13 cycles
 SCF Done:  E(UM062X) =  -767.456805418     A.U. after   10 cycles
 SCF Done:  E(UM062X) =  -767.456816422     A.U. after   11 cycles
 SCF Done:  E(UM062X) =  -767.456823887     A.U. after   12 cycles
 SCF Done:  E(UM062X) =  -767.456828108     A.U. after   11 cycles
 SCF Done:  E(UM062X) =  -767.456828816     A.U. after   11 cycles
 SCF Done:  E(UM062X) =  -767.456828842     A.U. after    7 cycles
 SCF Done:  E(UM062X) =  -767.456828848     A.U. after    6 cycles
 SCF Done:  E(UM062X) =  -767.456828849     A.U. after    5 cycles
 Optimization completed.
    -- Stationary point found.
 Normal termination of Gaussian 16 at Wed Aug 16 12:01:04 2023.

 --------------------------------------------------------------------
 #N Geom=AllCheck Guess=TCheck SCRF=Check GenChk UM062X/6-31G(d) Freq
 --------------------------------------------------------------------

 Structure from the checkpoint file:  "cor+_aliph_C8C9_ts_int_s2.chk"
 -------------------------
 cor+_aliph_C8C8_ts_int_s2
 -------------------------
 Charge =  1 Multiplicity = 2

                         Standard orientation:
 ---------------------------------------------------------------------
 Center     Atomic      Atomic             Coordinates (Angstroms)
 Number     Number       Type             X           Y           Z
 ---------------------------------------------------------------------
      1          6           0       -1.133192    0.304624   -0.000017
      2          6           0       -0.108830    1.372348   -0.000026
      3          6           0        1.146274    0.688286   -0.000037
      4          6           0        0.932997   -0.689538   -0.000032
      5          6           0       -0.445569   -0.920668   -0.000018
      6          6           0       -2.559148    0.188717   -0.000015
      7          6           0       -3.343001    1.286882    0.000005
      8          6           0       -4.079641    2.343553    0.000023
      9          6           0        0.032361    2.730876    0.000011
     10          6           0        1.284682    3.379085    0.000022
     11          6           0        2.466038    2.649873    0.000004
     12          6           0        2.419931    1.217360   -0.000015
     13          6           0        3.484832    0.240687    0.000004
     14          6           0        3.251719   -1.123505    0.000013
     15          6           0        1.910943   -1.648789   -0.000003
     16          6           0        1.377877   -2.998410    0.000018
     17          6           0        0.017432   -3.260086    0.000020
     18          6           0       -0.968272   -2.212324    0.000003
     19          6           0       -2.401859   -2.299027    0.000004
     20          6           0       -3.147942   -1.153255   -0.000009
     21          1           0       -4.399741    2.800455   -0.935808
     22          1           0        1.324657    4.463400    0.000046
     23          1           0        3.416904    3.175212    0.000023
     24          1           0        4.512822    0.590396    0.000016
     25          1           0        4.099877   -1.800719    0.000029
     26          1           0        2.062256   -3.842433    0.000039
     27          1           0       -0.315283   -4.292996    0.000039
     28          1           0       -2.896280   -3.264994    0.000014
     29          1           0       -4.231270   -1.208874   -0.000009
     30          1           0       -4.399740    2.800421    0.935871
 ---------------------------------------------------------------------

 SCF Done:  E(UM062X) =  -767.456828849     A.U. after    1 cycles

 The electronic state is 2-A.
 Alpha  occ. eigenvalues --  -10.77655 -10.75285 -10.74585 -10.73195 -10.72899
 Alpha  occ. eigenvalues --  -10.72601 -10.72267 -10.71184 -10.70905 -10.70785
 Alpha  occ. eigenvalues --  -10.70265 -10.70088 -10.69802 -10.69454 -10.69256
 Alpha  occ. eigenvalues --  -10.69087 -10.68815 -10.68622 -10.68086 -10.67692
 Alpha  occ. eigenvalues --   -1.16980  -1.11657  -1.09607  -1.06307  -1.05258
 Alpha  occ. eigenvalues --   -1.02973  -0.99636  -0.97168  -0.95420  -0.95219
 Alpha  occ. eigenvalues --   -0.89960  -0.85897  -0.84755  -0.82363  -0.81026
 Alpha  occ. eigenvalues --   -0.79380  -0.73829  -0.72734  -0.71899  -0.71415
 Alpha  occ. eigenvalues --   -0.69702  -0.68324  -0.66960  -0.65564  -0.64263
 Alpha  occ. eigenvalues --   -0.64015  -0.63759  -0.63004  -0.61903  -0.60500
 Alpha  occ. eigenvalues --   -0.59349  -0.58465  -0.56818  -0.56282  -0.55732
 Alpha  occ. eigenvalues --   -0.53523  -0.52324  -0.51061  -0.50880  -0.50446
 Alpha  occ. eigenvalues --   -0.46711  -0.43781  -0.42680  -0.40908  -0.40537
 Alpha virt. eigenvalues --   -0.25393  -0.16865  -0.12977  -0.10543  -0.09800
 Alpha virt. eigenvalues --   -0.08105  -0.05498  -0.00898   0.01562   0.02321
 Alpha virt. eigenvalues --    0.03691   0.04381   0.05316   0.06251   0.08217

  Beta  occ. eigenvalues --  -10.77671 -10.75261 -10.74580 -10.72898 -10.72593
  Beta  occ. eigenvalues --  -10.72269 -10.72108 -10.71183 -10.70926 -10.70788
  Beta  occ. eigenvalues --  -10.70183 -10.70083 -10.69800 -10.69475 -10.69263
  Beta  occ. eigenvalues --  -10.69098 -10.68805 -10.68628 -10.67997 -10.67689
  Beta  occ. eigenvalues --   -1.16851  -1.11506  -1.09304  -1.06253  -1.04992
  Beta  occ. eigenvalues --   -1.02646  -0.99367  -0.96716  -0.95211  -0.94802
  Beta  occ. eigenvalues --   -0.89685  -0.85774  -0.84168  -0.82046  -0.80687
  Beta  occ. eigenvalues --   -0.79255  -0.73593  -0.72487  -0.71783  -0.71002
  Beta  occ. eigenvalues --   -0.69302  -0.68408  -0.66166  -0.65335  -0.64206
  Beta  occ. eigenvalues --   -0.63795  -0.63354  -0.62552  -0.61635  -0.60115
  Beta  occ. eigenvalues --   -0.59090  -0.58240  -0.56385  -0.55993  -0.55405
  Beta  occ. eigenvalues --   -0.52800  -0.52232  -0.51016  -0.50540  -0.50421
  Beta  occ. eigenvalues --   -0.46283  -0.42164  -0.40722  -0.40612
  Beta virt. eigenvalues --   -0.25225  -0.16501  -0.16028  -0.12530  -0.10560
  Beta virt. eigenvalues --   -0.09370  -0.08058  -0.05469  -0.00587   0.02018
  Beta virt. eigenvalues --    0.02357   0.03719   0.04407   0.05308   0.06236

 Mulliken charges and spin densities:
               1          2
     1  C    0.141680   0.009226
     2  C    0.110681  -0.067513
     3  C   -0.117406   0.054781
     4  C   -0.103348  -0.006580
     5  C   -0.116595  -0.008004
     6  C   -0.087905   0.006280
     7  C    0.304656  -0.030242
     8  C   -0.555748   0.008333
     9  C    0.011859   1.038246
    10  C   -0.194417  -0.057257
    11  C   -0.186139   0.065921
    12  C    0.152385  -0.025645
    13  C   -0.170657   0.010989
    14  C   -0.216391  -0.011032
    15  C    0.217146   0.003091
    16  C   -0.189259   0.000669
    17  C   -0.185822   0.001533
    18  C    0.188918   0.002228
    19  C   -0.216842  -0.004863
    20  C   -0.097782  -0.002989
    21  H    0.278879  -0.002241
    22  H    0.222413   0.013113
    23  H    0.220524   0.003456
    24  H    0.207695  -0.000456
    25  H    0.209252   0.000456
    26  H    0.223172   0.000298
    27  H    0.214314  -0.000074
    28  H    0.227278   0.000209
    29  H    0.228583   0.000309
    30  H    0.278878  -0.002241
 Sum of Mulliken charges =   1.00000   1.00000

 Dipole moment (field-independent basis, Debye):
    X=             -4.1107    Y=              1.1221    Z=              0.0001  Tot=              4.2611
 Quadrupole moment (field-independent basis, Debye-Ang):
   XX=            -49.5580   YY=            -65.0714   ZZ=           -113.5537
   XY=             -7.6751   XZ=              0.0000   YZ=              0.0000

  Exact polarizability:     324.081     -22.447     290.646       0.000       0.000      63.994
 Approx polarizability:     429.438     -41.271     424.974       0.000       0.000      92.952

                      1                      2                      3
                      A                      A                      A
 Frequencies --     54.0038                64.1863                92.9307
 Red. masses --      4.9422                 4.6620                 4.0609
 Frc consts  --      0.0085                 0.0113                 0.0207
 IR Inten    --      8.0979                 0.5754                 2.5307

                      4                      5                      6
                      A                      A                      A
 Frequencies --    130.4908               199.9863               258.9145
 Red. masses --      4.5293                 4.8125                 3.9621
 Frc consts  --      0.0454                 0.1134                 0.1565
 IR Inten    --      0.1381                 0.0989                 0.0648

                      7                      8                      9
                      A                      A                      A
 Frequencies --    271.2488               286.4978               293.7540
 Red. masses --      6.2011                 4.7747                 4.3886
 Frc consts  --      0.2688                 0.2309                 0.2231
 IR Inten    --      2.8181                 0.0202                 0.0006

                     10                     11                     12
                      A                      A                      A
 Frequencies --    378.0779               396.4453               414.1430
 Red. masses --      6.5156                 3.0599                 2.7148
 Frc consts  --      0.5487                 0.2833                 0.2743
 IR Inten    --      3.9312                 3.1339                 0.0039

                     13                     14                     15
                      A                      A                      A
 Frequencies --    426.6492               445.1506               464.4409
 Red. masses --      7.3004                 5.7677                 3.5538
 Frc consts  --      0.7830                 0.6734                 0.4517
 IR Inten    --      1.8943                 0.8443                 0.3417

                     16                     17                     18
                      A                      A                      A
 Frequencies --    470.8946               504.3496               527.9629
 Red. masses --      7.2596                 1.5167                 3.2295
 Frc consts  --      0.9484                 0.2273                 0.5304
 IR Inten    --      2.1094                 1.2545                10.1401

                     19                     20                     21
                      A                      A                      A
 Frequencies --    537.1234               578.5693               581.5493
 Red. masses --      4.8541                 2.8387                 6.2709
 Frc consts  --      0.8251                 0.5599                 1.2496
 IR Inten    --      9.9941                 5.3124                 5.1938

                     22                     23                     24
                      A                      A                      A
 Frequencies --    584.2714               620.2292               637.2074
 Red. masses --      6.6399                 3.9834                 7.2960
 Frc consts  --      1.3355                 0.9028                 1.7454
 IR Inten    --      1.2129                 0.6526                 0.1981

                     25                     26                     27
                      A                      A                      A
 Frequencies --    647.7410               665.5324               677.1549
 Red. masses --      6.6355                 3.8376                 3.4267
 Frc consts  --      1.6403                 1.0015                 0.9258
 IR Inten    --      4.2248                 2.3883                 0.0004

                     28                     29                     30
                      A                      A                      A
 Frequencies --    708.5141               771.3744               788.5874
 Red. masses --      7.1741                 6.3294                 3.2297
 Frc consts  --      2.1219                 2.2189                 1.1834
 IR Inten    --      7.9517                 3.8632                 9.2329

                     31                     32                     33
                      A                      A                      A
 Frequencies --    799.5840               809.0646               825.5417
 Red. masses --      1.3013                 3.7393                 6.7851
 Frc consts  --      0.4902                 1.4421                 2.7245
 IR Inten    --      0.0334                 1.2829                 1.4507

                     34                     35                     36
                      A                      A                      A
 Frequencies --    837.0647               860.3430               889.9094
 Red. masses --      2.1498                 1.5883                 1.5976
 Frc consts  --      0.8875                 0.6927                 0.7454
 IR Inten    --     11.2219                 4.8618               101.8290

                     37                     38                     39
                      A                      A                      A
 Frequencies --    898.5515               909.1454               942.1945
 Red. masses --      5.6686                 1.3243                 1.8851
 Frc consts  --      2.6966                 0.6449                 0.9860
 IR Inten    --      5.0096                54.4103                 1.1953

                     40                     41                     42
                      A                      A                      A
 Frequencies --    943.6196              1002.0788              1010.2685
 Red. masses --      6.9190                 1.3168                 1.3178
 Frc consts  --      3.6298                 0.7791                 0.7925
 IR Inten    --      1.5425                 0.0502                 1.4303

                     43                     44                     45
                      A                      A                      A
 Frequencies --   1014.9299              1026.9509              1054.1194
 Red. masses --      1.3553                 1.3668                 3.4182
 Frc consts  --      0.8226                 0.8493                 2.2378
 IR Inten    --      0.0031                 0.0193                38.8398

                     46                     47                     48
                      A                      A                      A
 Frequencies --   1078.8857              1110.1160              1161.6861
 Red. masses --      4.7780                 2.8831                 1.3668
 Frc consts  --      3.2768                 2.0934                 1.0867
 IR Inten    --     27.8267                 6.6108                 4.0333

                     49                     50                     51
                      A                      A                      A
 Frequencies --   1171.9721              1179.3072              1219.0303
 Red. masses --      1.5008                 1.3441                 1.9709
 Frc consts  --      1.2145                 1.1014                 1.7256
 IR Inten    --      0.0150                10.3669                92.7687

                     52                     53                     54
                      A                      A                      A
 Frequencies --   1227.5335              1239.7541              1246.2143
 Red. masses --      3.1312                 1.9573                 2.0139
 Frc consts  --      2.7799                 1.7725                 1.8428
 IR Inten    --     48.1678                26.1753                22.6170

                     55                     56                     57
                      A                      A                      A
 Frequencies --   1255.2982              1297.3752              1332.6042
 Red. masses --      1.6433                 2.5925                 6.1919
 Frc consts  --      1.5256                 2.5710                 6.4786
 IR Inten    --      9.6900                 6.4163                 4.1551

                     58                     59                     60
                      A                      A                      A
 Frequencies --   1366.4244              1391.0531              1405.3414
 Red. masses --      4.2445                 3.3720                 1.6259
 Frc consts  --      4.6692                 3.8443                 1.8919
 IR Inten    --    183.3885                12.6256                27.6584

                     61                     62                     63
                      A                      A                      A
 Frequencies --   1441.7935              1446.2315              1463.2521
 Red. masses --      1.9509                 3.3058                 2.0791
 Frc consts  --      2.3894                 4.0739                 2.6228
 IR Inten    --     22.8308                31.8469                15.2043

                     64                     65                     66
                      A                      A                      A
 Frequencies --   1486.1085              1495.0739              1507.6949
 Red. masses --      6.6707                 2.7854                 6.4794
 Frc consts  --      8.6800                 3.6683                 8.6778
 IR Inten    --     75.6464                 0.5843               236.8885

                     67                     68                     69
                      A                      A                      A
 Frequencies --   1537.4032              1545.6984              1618.8451
 Red. masses --      4.5482                 5.5745                 9.2553
 Frc consts  --      6.3338                 7.8470                14.2906
 IR Inten    --     36.6573                22.8574               463.6251

                     70                     71                     72
                      A                      A                      A
 Frequencies --   1630.6268              1685.1747              1723.0078
 Red. masses --      7.1726                 8.0060                 9.3603
 Frc consts  --     11.2367                13.3955                16.3724
 IR Inten    --    101.2720               133.8353                17.3192

                     73                     74                     75
                      A                      A                      A
 Frequencies --   1754.8770              2011.5872              3165.1301
 Red. masses --      9.2494                 9.9992                 1.0602
 Frc consts  --     16.7825                23.8394                 6.2576
 IR Inten    --     19.6332               732.6484               165.1211

                     76                     77                     78
                      A                      A                      A
 Frequencies --   3232.5749              3234.0488              3234.7245
 Red. masses --      1.0899                 1.0889                 1.0887
 Frc consts  --      6.7101                 6.7102                 6.7115
 IR Inten    --      0.5874                 0.6938                 0.4339

                     79                     80                     81
                      A                      A                      A
 Frequencies --   3244.6111              3247.8999              3248.3318
 Red. masses --      1.0893                 1.0951                 1.1152
 Frc consts  --      6.7567                 6.8061                 6.9332
 IR Inten    --      1.2480                 3.4225                33.1030

                     82                     83                     84
                      A                      A                      A
 Frequencies --   3248.4964              3249.1910              3258.0607
 Red. masses --      1.0943                 1.0944                 1.0971
 Frc consts  --      6.8035                 6.8076                 6.8615
 IR Inten    --      0.0527                 0.9232                 0.6461

 - Thermochemistry -
 -------------------
 Temperature   298.150 Kelvin.  Pressure   1.00000 Atm.
 Atom     1 has atomic number  6 and mass  12.00000

 Molecular mass:   250.07825 amu.
 Principal axes and moments of inertia in atomic units:
                           1         2         3
     Eigenvalues --  3496.345934574.462788058.20073
           X            0.99989  -0.01511   0.00000
           Y            0.01511   0.99989   0.00000
           Z           -0.00000  -0.00000   1.00000
 This molecule is an asymmetric top.
 Rotational symmetry number  1.
 Warning -- assumption of classical behavior for rotation
           may cause significant error
 Rotational temperatures (Kelvin)      0.02477     0.01893     0.01075
 Rotational constants (GHZ):           0.51618     0.39453     0.22396
 Zero-point vibrational energy     602286.2 (Joules/Mol)
                                  143.94985 (Kcal/Mol)
 Warning -- explicit consideration of  23 degrees of freedom as
           vibrations may cause significant error
 Vibrational temperatures:     77.70    92.35   133.71   187.75   287.74
          (Kelvin)            372.52   390.27   412.21   422.65   543.97
                              570.40   595.86   613.85   640.47   668.23
                              677.51   725.65   759.62   772.80   832.43
                              836.72   840.64   892.37   916.80   931.95
                              957.55   974.27  1019.39  1109.84  1134.60
                             1150.42  1164.06  1187.77  1204.35  1237.84
                             1280.38  1292.82  1308.06  1355.61  1357.66
                             1441.77  1453.55  1460.26  1477.55  1516.64
                             1552.28  1597.21  1671.41  1686.21  1696.76
                             1753.91  1766.15  1783.73  1793.02  1806.09
                             1866.63  1917.32  1965.98  2001.42  2021.97
                             2074.42  2080.80  2105.29  2138.18  2151.08
                             2169.24  2211.98  2223.92  2329.16  2346.11
                             2424.59  2479.02  2524.88  2894.23  4553.92
                             4650.95  4653.07  4654.05  4668.27  4673.00
                             4673.62  4673.86  4674.86  4687.62

 Zero-point correction=                           0.229399 (Hartree/Particle)
 Thermal correction to Energy=                    0.242784
 Thermal correction to Enthalpy=                  0.243728
 Thermal correction to Gibbs Free Energy=         0.188808
 Sum of electronic and zero-point Energies=           -767.227430
 Sum of electronic and thermal Energies=              -767.214045
 Sum of electronic and thermal Enthalpies=            -767.213101
 Sum of electronic and thermal Free Energies=         -767.268020

                     E (Thermal)             CV                S
                      KCal/Mol        Cal/Mol-Kelvin    Cal/Mol-Kelvin
 Total                  152.349             56.794            115.588
 Electronic               0.000              0.000              1.377
 Translational            0.889              2.981             42.450
 Rotational               0.889              2.981             33.221
 Vibrational            150.572             50.833             38.539
 Vibration     1          0.596              1.976              4.665
 Vibration     2          0.597              1.971              4.324
 Vibration     3          0.602              1.954              3.597
 Vibration     4          0.612              1.923              2.939
 Vibration     5          0.638              1.840              2.133
 Vibration     6          0.668              1.748              1.669
 Vibration     7          0.675              1.726              1.588
 Vibration     8          0.684              1.699              1.495
 Vibration     9          0.689              1.685              1.452
 Vibration    10          0.748              1.517              1.047
 Vibration    11          0.763              1.478              0.976
 Vibration    12          0.778              1.440              0.912
 Vibration    13          0.788              1.412              0.870
 Vibration    14          0.805              1.372              0.811
 Vibration    15          0.822              1.329              0.753
 Vibration    16          0.828              1.315              0.735
 Vibration    17          0.860              1.240              0.647
 Vibration    18          0.883              1.188              0.592
 Vibration    19          0.892              1.168              0.572
 Vibration    20          0.935              1.078              0.488
 Vibration    21          0.938              1.071              0.482
 Vibration    22          0.941              1.065              0.478
 Vibration    23          0.980              0.989              0.416

                           ! Non-Optimized Parameters !
 Normal termination of Gaussian 16 at Wed Aug 16 12:07:45 2023.
