 Gaussian 16, Revision C.02,
 Gaussian 16:  ES64L-G16RevC.02  7-Dec-2021

 ---------------------------------------------------
 #n M062x/6-31G Opt=tight int=ultrafine freq=noraman
 ---------------------------------------------------

 -----------
 Corannulene
 -----------
 Symbolic Z-matrix:
 Charge =  1 Multiplicity = 2

 SCF Done:  E(UM062X) =  -767.140084458     A.U. after   21 cycles
 SCF Done:  E(UM062X) =  -767.262325986     A.U. after   20 cycles
 SCF Done:  E(UM062X) =  -767.357158576     A.U. after   25 cycles
 SCF Done:  E(UM062X) =  -767.381739191     A.U. after   29 cycles
 SCF Done:  E(UM062X) =  -767.389623286     A.U. after   25 cycles
 SCF Done:  E(UM062X) =  -767.391267951     A.U. after   28 cycles
 SCF Done:  E(UM062X) =  -767.391453697     A.U. after   23 cycles
 SCF Done:  E(UM062X) =  -767.391481072     A.U. after   21 cycles
 SCF Done:  E(UM062X) =  -767.391486881     A.U. after   19 cycles
 SCF Done:  E(UM062X) =  -767.391489072     A.U. after   19 cycles
 SCF Done:  E(UM062X) =  -767.391490254     A.U. after   17 cycles
 SCF Done:  E(UM062X) =  -767.391490688     A.U. after   18 cycles
 SCF Done:  E(UM062X) =  -767.391491087     A.U. after   17 cycles
 SCF Done:  E(UM062X) =  -767.391491331     A.U. after   17 cycles
 SCF Done:  E(UM062X) =  -767.391491411     A.U. after   17 cycles
 SCF Done:  E(UM062X) =  -767.391491425     A.U. after   15 cycles
 SCF Done:  E(UM062X) =  -767.391491429     A.U. after   12 cycles
 SCF Done:  E(UM062X) =  -767.391491428     A.U. after   12 cycles
 SCF Done:  E(UM062X) =  -767.391491430     A.U. after   13 cycles
 Optimization completed.
    -- Stationary point found.
 Normal termination of Gaussian 16 at Fri Jul 21 23:56:15 2023.

 -----------------------------------------------------------------
 #N Geom=AllCheck Guess=TCheck SCRF=Check GenChk UM062X/6-31G Freq
 -----------------------------------------------------------------

 Structure from the checkpoint file:  "corannulene+.chk"
 -----------
 Corannulene
 -----------
 Charge =  1 Multiplicity = 2

                         Standard orientation:
 ---------------------------------------------------------------------
 Center     Atomic      Atomic             Coordinates (Angstroms)
 Number     Number       Type             X           Y           Z
 ---------------------------------------------------------------------
      1          6           0       -1.161311   -0.368072    0.632730
      2          6           0       -0.000069   -1.204246    0.619258
      3          6           0        1.161266   -0.368192    0.632722
      4          6           0        0.723105    0.954110    0.597987
      5          6           0       -0.723003    0.954188    0.597987
      6          6           0       -2.386103   -0.761012    0.108055
      7          6           0       -2.451520   -2.152254   -0.257275
      8          6           0       -1.318648   -2.964812   -0.271934
      9          6           0       -0.000138   -2.467277    0.071789
     10          6           0        1.318321   -2.964948   -0.271936
     11          6           0        2.451285   -2.152510   -0.257285
     12          6           0        2.386021   -0.761266    0.108047
     13          6           0        3.283680    0.332283   -0.222539
     14          6           0        2.860311    1.649198   -0.232955
     15          6           0        1.486542    2.004021    0.083668
     16          6           0        0.719536    3.141524   -0.274856
     17          6           0       -0.719189    3.141600   -0.274857
     18          6           0       -1.486323    2.004177    0.083664
     19          6           0       -2.860126    1.649504   -0.232965
     20          6           0       -3.283638    0.332634   -0.222544
     21          1           0       -3.385690   -2.564745   -0.621203
     22          1           0       -1.421212   -3.981088   -0.637009
     23          1           0        1.420779   -3.981236   -0.637010
     24          1           0        3.385407   -2.565102   -0.621221
     25          1           0        4.290490    0.106242   -0.554713
     26          1           0        3.545318    2.420032   -0.566503
     27          1           0        1.212860    4.023379   -0.670832
     28          1           0       -1.212420    4.023509   -0.670829
     29          1           0       -3.545047    2.420411   -0.566524
     30          1           0       -4.290471    0.106702   -0.554723
 ---------------------------------------------------------------------

 SCF Done:  E(UM062X) =  -767.391491430     A.U. after    1 cycles

 The electronic state is 2-A.
 Alpha  occ. eigenvalues --  -10.74829 -10.74776 -10.73094 -10.73093 -10.72960
 Alpha  occ. eigenvalues --  -10.72913 -10.72528 -10.72528 -10.71883 -10.71804
 Alpha  occ. eigenvalues --  -10.71489 -10.71484 -10.71128 -10.71128 -10.70781
 Alpha  occ. eigenvalues --  -10.70781 -10.70722 -10.70720 -10.70709 -10.70709
 Alpha  occ. eigenvalues --   -1.19793  -1.12830  -1.12282  -1.07096  -1.05707
 Alpha  occ. eigenvalues --   -1.05691  -0.98623  -0.98364  -0.97137  -0.97128
 Alpha  occ. eigenvalues --   -0.88804  -0.87714  -0.87278  -0.83567  -0.83382
 Alpha  occ. eigenvalues --   -0.80723  -0.74837  -0.74813  -0.73586  -0.72758
 Alpha  occ. eigenvalues --   -0.72560  -0.67157  -0.67049  -0.66490  -0.65752
 Alpha  occ. eigenvalues --   -0.65173  -0.64502  -0.64273  -0.63269  -0.61375
 Alpha  occ. eigenvalues --   -0.60900  -0.59958  -0.59772  -0.59258  -0.55619
 Alpha  occ. eigenvalues --   -0.54808  -0.54299  -0.54067  -0.52507  -0.51086
 Alpha  occ. eigenvalues --   -0.50915  -0.43163  -0.43135  -0.42438  -0.42306
 Alpha virt. eigenvalues --   -0.19811  -0.17840  -0.11635  -0.10602  -0.09103
 Alpha virt. eigenvalues --   -0.09008  -0.01016  -0.00344   0.01719   0.03269
 Alpha virt. eigenvalues --    0.03808   0.04919   0.05075   0.06323   0.06776

  Beta  occ. eigenvalues --  -10.74723 -10.74676 -10.73123 -10.73121 -10.72853
  Beta  occ. eigenvalues --  -10.72809 -10.72489 -10.72489 -10.71893 -10.71714
  Beta  occ. eigenvalues --  -10.71424 -10.71420 -10.71109 -10.71109 -10.70802
  Beta  occ. eigenvalues --  -10.70801 -10.70741 -10.70739 -10.70737 -10.70737
  Beta  occ. eigenvalues --   -1.19383  -1.12427  -1.12143  -1.06725  -1.05563
  Beta  occ. eigenvalues --   -1.05505  -0.98480  -0.98084  -0.97000  -0.96500
  Beta  occ. eigenvalues --   -0.88557  -0.87442  -0.87083  -0.83298  -0.83114
  Beta  occ. eigenvalues --   -0.80609  -0.74686  -0.74461  -0.73354  -0.72554
  Beta  occ. eigenvalues --   -0.72390  -0.66768  -0.66401  -0.65928  -0.65566
  Beta  occ. eigenvalues --   -0.64884  -0.64216  -0.64056  -0.62955  -0.61203
  Beta  occ. eigenvalues --   -0.60768  -0.59613  -0.59013  -0.58462  -0.55426
  Beta  occ. eigenvalues --   -0.54460  -0.54019  -0.53841  -0.50869  -0.50711
  Beta  occ. eigenvalues --   -0.49666  -0.42976  -0.41706  -0.41557
  Beta virt. eigenvalues --   -0.31064  -0.18856  -0.16815  -0.11005  -0.09486
  Beta virt. eigenvalues --   -0.08424  -0.08163  -0.00525   0.00110   0.01908
  Beta virt. eigenvalues --    0.03366   0.03894   0.05074   0.05145   0.06467

 Mulliken charges and spin densities:
               1          2
     1  C   -0.032397  -0.016945
     2  C   -0.076012   0.199996
     3  C   -0.032404  -0.016924
     4  C   -0.071700   0.183103
     5  C   -0.071704   0.183125
     6  C    0.079005   0.060245
     7  C   -0.144040  -0.040458
     8  C   -0.126330   0.106235
     9  C    0.069962  -0.064522
    10  C   -0.126328   0.106277
    11  C   -0.144041  -0.040459
    12  C    0.079009   0.060262
    13  C   -0.131221  -0.030853
    14  C   -0.123712   0.029927
    15  C    0.096911  -0.036714
    16  C   -0.134978   0.192306
    17  C   -0.134970   0.192361
    18  C    0.096907  -0.036741
    19  C   -0.123714   0.029925
    20  C   -0.131224  -0.030855
    21  H    0.214047   0.001954
    22  H    0.215675  -0.005554
    23  H    0.215678  -0.005556
    24  H    0.214049   0.001954
    25  H    0.214522   0.001246
    26  H    0.214757  -0.001674
    27  H    0.232489  -0.010618
    28  H    0.232489  -0.010620
    29  H    0.214755  -0.001674
    30  H    0.214520   0.001247
 Sum of Mulliken charges =   1.00000   1.00000

 Dipole moment (field-independent basis, Debye):
    X=              0.0003    Y=              1.5314    Z=             -2.7141  Tot=              3.1163
 Quadrupole moment (field-independent basis, Debye-Ang):
   XX=            -72.1811   YY=            -65.0370   ZZ=           -113.9375
   XY=              0.0001   XZ=             -0.0000   YZ=             -0.3937

  Exact polarizability:     313.750      -0.012     317.400      -0.001      -5.562      67.803
 Approx polarizability:     388.337      -0.004     472.202      -0.000      -4.798      98.715

                      1                      2                      3
                      A                      A                      A
 Frequencies --     77.1860               137.5892               147.7407
 Red. masses --      5.1697                 4.4561                 4.6092
 Frc consts  --      0.0181                 0.0497                 0.0593
 IR Inten    --    404.5722                 4.1164                 6.4730

                      4                      5                      6
                      A                      A                      A
 Frequencies --    195.7110               271.1355               271.3330
 Red. masses --      5.7878                 4.2153                 4.3224
 Frc consts  --      0.1306                 0.1826                 0.1875
 IR Inten    --    466.8264                 1.2263                 0.4536

                      7                      8                      9
                      A                      A                      A
 Frequencies --    302.4617               333.6058               408.0096
 Red. masses --      4.2127                 4.2353                 5.7037
 Frc consts  --      0.2271                 0.2777                 0.5594
 IR Inten    --      1.3327                75.3929                 0.5652

                     10                     11                     12
                      A                      A                      A
 Frequencies --    426.6685               435.3921               445.7311
 Red. masses --      5.7254                 3.3585                 6.8015
 Frc consts  --      0.6141                 0.3751                 0.7962
 IR Inten    --      0.4188                 0.2342                 3.9852

                     13                     14                     15
                      A                      A                      A
 Frequencies --    456.4445               502.2947               552.5694
 Red. masses --      4.3187                 3.2903                 3.7420
 Frc consts  --      0.5301                 0.4891                 0.6732
 IR Inten    --      4.4112                 0.5285                19.9574

                     16                     17                     18
                      A                      A                      A
 Frequencies --    555.2978               558.4182               571.0857
 Red. masses --      4.1614                 3.9990                 4.4335
 Frc consts  --      0.7560                 0.7347                 0.8519
 IR Inten    --      2.5569                 3.7232                 8.0269

                     19                     20                     21
                      A                      A                      A
 Frequencies --    603.4481               610.2433               631.7919
 Red. masses --      4.4084                 6.3145                 4.9956
 Frc consts  --      0.9458                 1.3855                 1.1749
 IR Inten    --     37.1721                 0.4811                17.7015

                     22                     23                     24
                      A                      A                      A
 Frequencies --    638.5774               657.6285               661.4301
 Red. masses --      6.0334                 5.7576                 4.9780
 Frc consts  --      1.4496                 1.4671                 1.2831
 IR Inten    --     11.4789                17.3980                41.4966

                     25                     26                     27
                      A                      A                      A
 Frequencies --    674.9341               751.3192               772.8461
 Red. masses --      3.6368                 4.2444                 5.8923
 Frc consts  --      0.9761                 1.4116                 2.0736
 IR Inten    --      1.2764               176.6008                 1.5966

                     28                     29                     30
                      A                      A                      A
 Frequencies --    795.5882               800.9327               815.0126
 Red. masses --      3.4044                 2.4373                 2.4089
 Frc consts  --      1.2696                 0.9212                 0.9428
 IR Inten    --     24.1050                 1.6052                84.0109

                     31                     32                     33
                      A                      A                      A
 Frequencies --    835.2601               849.0369               881.3696
 Red. masses --      2.0602                 3.7111                 5.7438
 Frc consts  --      0.8468                 1.5762                 2.6288
 IR Inten    --      9.2790               218.1818                 2.2071

                     34                     35                     36
                      A                      A                      A
 Frequencies --    885.2068               903.6028               927.7530
 Red. masses --      1.6095                 1.6498                 1.5850
 Frc consts  --      0.7430                 0.7937                 0.8038
 IR Inten    --      0.9814                11.5079               154.2861

                     37                     38                     39
                      A                      A                      A
 Frequencies --    958.7540              1022.7251              1025.4605
 Red. masses --      5.3187                 3.3928                 1.6100
 Frc consts  --      2.8805                 2.0909                 0.9975
 IR Inten    --      1.1134               271.4160                76.7514

                     40                     41                     42
                      A                      A                      A
 Frequencies --   1034.6283              1046.2883              1047.1384
 Red. masses --      1.7721                 2.2240                 1.3668
 Frc consts  --      1.1177                 1.4344                 0.8830
 IR Inten    --    276.1926               148.2702                 2.8223

                     43                     44                     45
                      A                      A                      A
 Frequencies --   1059.1918              1059.5894              1099.5899
 Red. masses --      1.6387                 1.4210                 2.8743
 Frc consts  --      1.0832                 0.9400                 2.0476
 IR Inten    --     73.3089                 0.7891               606.6105

                     46                     47                     48
                      A                      A                      A
 Frequencies --   1124.6244              1137.1126              1195.8242
 Red. masses --      3.8752                 2.2717                 1.4090
 Frc consts  --      2.8878                 1.7306                 1.1871
 IR Inten    --      4.5087               108.2521                14.7952

                     49                     50                     51
                      A                      A                      A
 Frequencies --   1196.5525              1210.0122              1222.1073
 Red. masses --      1.5547                 3.5519                 1.6240
 Frc consts  --      1.3115                 3.0640                 1.4290
 IR Inten    --      0.6776                 1.2490               189.1527

                     52                     53                     54
                      A                      A                      A
 Frequencies --   1238.1015              1245.8048              1273.0337
 Red. masses --      1.7726                 2.3051                 2.0997
 Frc consts  --      1.6009                 2.1079                 2.0048
 IR Inten    --      6.5050                23.2804               183.4835

                     55                     56                     57
                      A                      A                      A
 Frequencies --   1280.1751              1302.2630              1352.9043
 Red. masses --      1.6984                 2.5905                 3.6186
 Frc consts  --      1.6400                 2.5884                 3.9023
 IR Inten    --     22.8920                82.0828                24.1295

                     58                     59                     60
                      A                      A                      A
 Frequencies --   1358.6384              1374.1577              1409.1248
 Red. masses --      2.3659                 2.4327                 3.9954
 Frc consts  --      2.5730                 2.7065                 4.6742
 IR Inten    --     49.3109               109.1715                79.2949

                     61                     62                     63
                      A                      A                      A
 Frequencies --   1440.3591              1461.4900              1466.1503
 Red. masses --      2.9466                 1.6531                 1.9715
 Frc consts  --      3.6018                 2.0804                 2.4969
 IR Inten    --     62.2403                16.6067                16.2903

                     64                     65                     66
                      A                      A                      A
 Frequencies --   1498.1016              1501.2808              1511.1694
 Red. masses --      2.4526                 3.4504                 5.4088
 Frc consts  --      3.2430                 4.5818                 7.2774
 IR Inten    --     20.0639               104.7692                 5.1605

                     67                     68                     69
                      A                      A                      A
 Frequencies --   1518.0350              1528.5786              1553.6579
 Red. masses --      3.9546                 6.4039                 3.8462
 Frc consts  --      5.3693                 8.8160                 5.4701
 IR Inten    --      3.1906                 0.8980               109.2155

                     70                     71                     72
                      A                      A                      A
 Frequencies --   1590.3875              1649.0647              1690.6831
 Red. masses --      4.8154                 8.1716                 8.3597
 Frc consts  --      7.1761                13.0927                14.0788
 IR Inten    --    164.5039               284.6141                 1.5862

                     73                     74                     75
                      A                      A                      A
 Frequencies --   1693.4419              1695.4634              3236.9320
 Red. masses --      9.1171                 7.3005                 1.0908
 Frc consts  --     15.4045                12.3646                 6.7336
 IR Inten    --     85.0099                 7.7385                 0.1790

                     76                     77                     78
                      A                      A                      A
 Frequencies --   3240.6843              3241.4413              3246.3691
 Red. masses --      1.0896                 1.0891                 1.0890
 Frc consts  --      6.7423                 6.7418                 6.7622
 IR Inten    --      0.5903                 0.2560                 0.0266

                     79                     80                     81
                      A                      A                      A
 Frequencies --   3246.4718              3249.4502              3255.8829
 Red. masses --      1.0892                 1.0939                 1.0954
 Frc consts  --      6.7636                 6.8055                 6.8413
 IR Inten    --      0.4642                 0.2390                 1.0991

                     82                     83                     84
                      A                      A                      A
 Frequencies --   3256.2828              3261.1447              3261.3278
 Red. masses --      1.0955                 1.0964                 1.0964
 Frc consts  --      6.8441                 6.8699                 6.8707
 IR Inten    --      0.8000                 6.0130                 0.2888

 - Thermochemistry -
 -------------------
 Temperature   298.150 Kelvin.  Pressure   1.00000 Atm.
 Atom     1 has atomic number  6 and mass  12.00000

 Molecular mass:   250.07825 amu.
 Principal axes and moments of inertia in atomic units:
                           1         2         3
     Eigenvalues --  3489.207583625.463406867.60175
           X            1.00000  -0.00000   0.00000
           Y            0.00000   1.00000   0.00000
           Z           -0.00000  -0.00000   1.00000
 This molecule is an asymmetric top.
 Rotational symmetry number  1.
 Warning -- assumption of classical behavior for rotation
           may cause significant error
 Rotational temperatures (Kelvin)      0.02482     0.02389     0.01261
 Rotational constants (GHZ):           0.51724     0.49780     0.26279
 Zero-point vibrational energy     615552.3 (Joules/Mol)
                                  147.12053 (Kcal/Mol)
 Warning -- explicit consideration of  20 degrees of freedom as
           vibrations may cause significant error
 Vibrational temperatures:    111.05   197.96   212.57   281.58   390.10
          (Kelvin)            390.39   435.17   479.98   587.03   613.88
                              626.43   641.31   656.72   722.69   795.02
                              798.95   803.44   821.66   868.23   878.00
                              909.01   918.77   946.18   951.65   971.08
                             1080.98  1111.95  1144.67  1152.36  1172.62
                             1201.75  1221.57  1268.09  1273.62  1300.08
                             1334.83  1379.43  1471.47  1475.41  1488.60
                             1505.38  1506.60  1523.94  1524.51  1582.06
                             1618.08  1636.05  1720.52  1721.57  1740.94
                             1758.34  1781.35  1792.44  1831.61  1841.89
                             1873.67  1946.53  1954.78  1977.11  2027.42
                             2072.36  2102.76  2109.46  2155.43  2160.01
                             2174.24  2184.11  2199.28  2235.37  2288.21
                             2372.64  2432.52  2436.49  2439.39  4657.22
                             4662.62  4663.71  4670.80  4670.95  4675.23
                             4684.49  4685.06  4692.06  4692.32

 Zero-point correction=                           0.234451 (Hartree/Particle)
 Thermal correction to Energy=                    0.246295
 Thermal correction to Enthalpy=                  0.247239
 Thermal correction to Gibbs Free Energy=         0.196291
 Sum of electronic and zero-point Energies=           -767.157040
 Sum of electronic and thermal Energies=              -767.145196
 Sum of electronic and thermal Enthalpies=            -767.144252
 Sum of electronic and thermal Free Energies=         -767.195201

                     E (Thermal)             CV                S
                      KCal/Mol        Cal/Mol-Kelvin    Cal/Mol-Kelvin
 Total                  154.552             52.741            107.230
 Electronic               0.000              0.000              1.377
 Translational            0.889              2.981             42.450
 Rotational               0.889              2.981             32.829
 Vibrational            152.775             46.779             30.573
 Vibration     1          0.599              1.964              3.961
 Vibration     2          0.614              1.916              2.837
 Vibration     3          0.617              1.905              2.701
 Vibration     4          0.636              1.846              2.173
 Vibration     5          0.675              1.726              1.589
 Vibration     6          0.675              1.726              1.588
 Vibration     7          0.694              1.669              1.403
 Vibration     8          0.715              1.608              1.243
 Vibration     9          0.773              1.453              0.934
 Vibration    10          0.788              1.412              0.870
 Vibration    11          0.796              1.393              0.841
 Vibration    12          0.805              1.370              0.809
 Vibration    13          0.815              1.347              0.777
 Vibration    14          0.858              1.245              0.652
 Vibration    15          0.908              1.134              0.539
 Vibration    16          0.911              1.128              0.533
 Vibration    17          0.914              1.121              0.527
 Vibration    18          0.927              1.094              0.502
 Vibration    19          0.962              1.024              0.444
 Vibration    20          0.969              1.010              0.432

 Optimization completed.
    -- Stationary point found.
 Normal termination of Gaussian 16 at Fri Jul 21 23:59:12 2023.
