 Gaussian 16, Revision C.02,
 Gaussian 16:  ES64L-G16RevC.02  7-Dec-2021

 ----------------------------------------------------------------------
 #n m062x/6-31G(d) scf=qc Opt(ts,calcfc,modredundant, tight, noeigentes
 t) int=ultrafine freq=noraman
 ----------------------------------------------------------------------

 ----------------------------------------
 Corannulene aliph ts for CCbond openinfg
 ----------------------------------------
 Symbolic Z-matrix:
 Charge =  1 Multiplicity = 2

 SCF Done:  E(UM062X) =  -767.398385103     a.u. after   21 cycles
 SCF Done:  E(UM062X) =  -767.406053920     a.u. after   18 cycles
 SCF Done:  E(UM062X) =  -767.415555152     a.u. after   20 cycles
 SCF Done:  E(UM062X) =  -767.422972169     a.u. after   13 cycles
 SCF Done:  E(UM062X) =  -767.423595998     a.u. after   13 cycles
 SCF Done:  E(UM062X) =  -767.417105477     a.u. after   16 cycles
 SCF Done:  E(UM062X) =  -767.420187332     a.u. after   13 cycles
 SCF Done:  E(UM062X) =  -767.423949409     a.u. after    9 cycles
 SCF Done:  E(UM062X) =  -767.424799373     a.u. after   12 cycles
 SCF Done:  E(UM062X) =  -767.424886940     a.u. after    7 cycles
 SCF Done:  E(UM062X) =  -767.425000589     a.u. after    3 cycles
 SCF Done:  E(UM062X) =  -767.425011779     a.u. after    4 cycles
 SCF Done:  E(UM062X) =  -767.425017564     a.u. after    3 cycles
 SCF Done:  E(UM062X) =  -767.425017619     a.u. after    2 cycles
 SCF Done:  E(UM062X) =  -767.425017561     a.u. after    2 cycles
 SCF Done:  E(UM062X) =  -767.425017656     a.u. after    2 cycles
 SCF Done:  E(UM062X) =  -767.425017658     a.u. after    2 cycles
 SCF Done:  E(UM062X) =  -767.425017658     a.u. after    2 cycles
 SCF Done:  E(UM062X) =  -767.425017657     a.u. after    2 cycles
 Optimization completed.
    -- Stationary point found.
 Normal termination of Gaussian 16 at Tue Aug 15 17:09:29 2023.

 --------------------------------------------------------------------
 #N Geom=AllCheck Guess=TCheck SCRF=Check GenChk UM062X/6-31G(d) Freq
 --------------------------------------------------------------------

 Structure from the checkpoint file:  "cor+_aliph_C8C9_ts_S2.chk"
 ----------------------------------------
 Corannulene aliph ts for CCbond openinfg
 ----------------------------------------
 Charge =  1 Multiplicity = 2

                         Standard orientation:
 ---------------------------------------------------------------------
 Center     Atomic      Atomic             Coordinates (Angstroms)
 Number     Number       Type             X           Y           Z
 ---------------------------------------------------------------------
      1          6           0       -1.032416   -0.617758    0.432033
      2          6           0        0.277530   -1.235260    0.463186
      3          6           0        1.210550   -0.165259    0.475685
      4          6           0        0.504988    1.056317    0.485158
      5          6           0       -0.873868    0.770978    0.484723
      6          6           0       -2.284964   -1.165420    0.055280
      7          6           0       -2.139661   -2.493742   -0.190450
      8          6           0       -1.248856   -3.484673   -0.303179
      9          6           0        0.731607   -2.470436    0.119585
     10          6           0        2.099578   -2.676176   -0.168138
     11          6           0        2.975521   -1.590345   -0.198278
     12          6           0        2.525808   -0.253350    0.072373
     13          6           0        3.161410    1.021249   -0.195623
     14          6           0        2.456962    2.209483   -0.205162
     15          6           0        1.037344    2.249416    0.068443
     16          6           0        0.036147    3.266627   -0.196049
     17          6           0       -1.325081    3.000004   -0.190107
     18          6           0       -1.838250    1.682544    0.076589
     19          6           0       -3.156554    1.130495   -0.168734
     20          6           0       -3.374607   -0.222808   -0.174451
     21          1           0       -1.212441   -4.271730    0.451035
     22          1           0        2.477568   -3.665056   -0.404919
     23          1           0        4.009989   -1.770764   -0.478214
     24          1           0        4.212855    1.039718   -0.466042
     25          1           0        2.975924    3.121171   -0.484532
     26          1           0        0.357897    4.266427   -0.474989
     27          1           0       -2.012014    3.794932   -0.462449
     28          1           0       -3.977734    1.796820   -0.413524
     29          1           0       -4.356573   -0.616007   -0.412773
     30          1           0       -0.934587   -3.766821   -1.310895
 ---------------------------------------------------------------------

 SCF Done:  E(UM062X) =  -767.425017657     a.u. after    1 cycles

 The electronic state is 2-A.
 Alpha  occ. eigenvalues --  -10.77983 -10.74988 -10.74490 -10.74466 -10.74396
 Alpha  occ. eigenvalues --  -10.73176 -10.72207 -10.71407 -10.71245 -10.71109
 Alpha  occ. eigenvalues --  -10.70675 -10.70668 -10.70295 -10.70276 -10.70244
 Alpha  occ. eigenvalues --  -10.69729 -10.69345 -10.69179 -10.69064 -10.68882
 Alpha  occ. eigenvalues --   -1.18054  -1.12130  -1.10719  -1.06403  -1.05619
 Alpha  occ. eigenvalues --   -1.03858  -0.99241  -0.97506  -0.96038  -0.95859
 Alpha  occ. eigenvalues --   -0.89630  -0.86503  -0.85450  -0.82438  -0.81699
 Alpha  occ. eigenvalues --   -0.80128  -0.74150  -0.73107  -0.72236  -0.71442
 Alpha  occ. eigenvalues --   -0.70291  -0.68798  -0.67456  -0.65606  -0.64708
 Alpha  occ. eigenvalues --   -0.64279  -0.64140  -0.63344  -0.62525  -0.61132
 Alpha  occ. eigenvalues --   -0.59856  -0.58836  -0.57029  -0.56973  -0.56113
 Alpha  occ. eigenvalues --   -0.55137  -0.53154  -0.51502  -0.51267  -0.50943
 Alpha  occ. eigenvalues --   -0.46816  -0.43176  -0.42359  -0.41363  -0.41002
 Alpha virt. eigenvalues --   -0.25365  -0.17478  -0.13796  -0.11763  -0.10525
 Alpha virt. eigenvalues --   -0.08575  -0.07132  -0.01811   0.00575   0.02324
 Alpha virt. eigenvalues --    0.03188   0.04014   0.05100   0.05957   0.07544

  Beta  occ. eigenvalues --  -10.77543 -10.74942 -10.74522 -10.74514 -10.73661
  Beta  occ. eigenvalues --  -10.73182 -10.72179 -10.71415 -10.71253 -10.71044
  Beta  occ. eigenvalues --  -10.70698 -10.70670 -10.70297 -10.70291 -10.70239
  Beta  occ. eigenvalues --  -10.69719 -10.69336 -10.69187 -10.69001 -10.68881
  Beta  occ. eigenvalues --   -1.17855  -1.11803  -1.10310  -1.06048  -1.05401
  Beta  occ. eigenvalues --   -1.03450  -0.99020  -0.97092  -0.95867  -0.95551
  Beta  occ. eigenvalues --   -0.89336  -0.86294  -0.84916  -0.82113  -0.81357
  Beta  occ. eigenvalues --   -0.79708  -0.73923  -0.72892  -0.71829  -0.71056
  Beta  occ. eigenvalues --   -0.69620  -0.68679  -0.66760  -0.65352  -0.64659
  Beta  occ. eigenvalues --   -0.64118  -0.63817  -0.63008  -0.62239  -0.60755
  Beta  occ. eigenvalues --   -0.59578  -0.58643  -0.56739  -0.56429  -0.55559
  Beta  occ. eigenvalues --   -0.54059  -0.52954  -0.51094  -0.50855  -0.49757
  Beta  occ. eigenvalues --   -0.46415  -0.42535  -0.41371  -0.41183
  Beta virt. eigenvalues --   -0.24358  -0.21801  -0.17056  -0.13120  -0.10363
  Beta virt. eigenvalues --   -0.09223  -0.07580  -0.06992  -0.01529   0.00879
  Beta virt. eigenvalues --    0.02200   0.03133   0.04140   0.05188   0.05993

 Mulliken charges and spin densities:
               1          2
     1  C    0.008919   0.025935
     2  C    0.077084  -0.046830
     3  C   -0.068084   0.045526
     4  C   -0.053877  -0.005886
     5  C   -0.067763   0.004613
     6  C    0.046950  -0.035862
     7  C    0.185768   0.461997
     8  C   -0.476656  -0.230087
     9  C    0.034073   0.763007
    10  C   -0.227454  -0.042385
    11  C   -0.172238   0.051241
    12  C    0.136402  -0.026269
    13  C   -0.179625   0.010561
    14  C   -0.192095  -0.013477
    15  C    0.144276   0.005314
    16  C   -0.170377  -0.014046
    17  C   -0.191110   0.007488
    18  C    0.156700  -0.010488
    19  C   -0.192316  -0.010788
    20  C   -0.137935   0.016795
    21  H    0.286931   0.012536
    22  H    0.222817   0.010662
    23  H    0.221347   0.003348
    24  H    0.210185  -0.000390
    25  H    0.210704   0.000604
    26  H    0.222891   0.000786
    27  H    0.217195  -0.000291
    28  H    0.226530   0.000930
    29  H    0.233926   0.001734
    30  H    0.286832   0.013720
 Sum of Mulliken charges =   1.00000   1.00000

 Dipole moment (field-independent basis, Debye):
    X=             -1.6155    Y=             -2.2431    Z=             -1.9443  Tot=              3.3796
 Quadrupole moment (field-independent basis, Debye-Ang):
   XX=            -69.5733   YY=            -61.4206   ZZ=           -112.4919
   XY=              0.2959   XZ=             -1.0463   YZ=             -0.3190

  Exact polarizability:     271.794      -0.796     286.181      -2.323      -1.610      71.377
 Approx polarizability:     399.421       1.394     433.610      -5.823      -1.894     110.377

 ******    1 imaginary frequencies (negative Signs) ******

                      1                      2                      3
                      A                      A                      A
 Frequencies --   -578.9912                93.8257               116.6161
 Red. masses --     10.3093                 4.5385                 4.3054
 Frc consts  --      2.0362                 0.0235                 0.0345
 IR Inten    --      3.7295                 8.0371                 0.8915

                      4                      5                      6
                      A                      A                      A
 Frequencies --    132.9849               217.5479               260.7263
 Red. masses --      4.5751                 3.6303                 4.2045
 Frc consts  --      0.0477                 0.1012                 0.1684
 IR Inten    --      0.2743                 0.1189                 0.4368

                      7                      8                      9
                      A                      A                      A
 Frequencies --    282.7020               296.3078               339.3436
 Red. masses --      4.6922                 4.1957                 5.9447
 Frc consts  --      0.2209                 0.2170                 0.4033
 IR Inten    --      0.0335                 0.4386                 6.4277

                     10                     11                     12
                      A                      A                      A
 Frequencies --    377.5525               405.7627               418.0894
 Red. masses --      2.9879                 5.8537                 6.3288
 Frc consts  --      0.2509                 0.5678                 0.6518
 IR Inten    --      5.9256                 1.7637                 1.3394

                     13                     14                     15
                      A                      A                      A
 Frequencies --    428.5078               434.6015               459.5458
 Red. masses --      7.9113                 4.0896                 3.9010
 Frc consts  --      0.8559                 0.4551                 0.4854
 IR Inten    --      1.7909                 0.3353                 1.9360

                     16                     17                     18
                      A                      A                      A
 Frequencies --    510.8512               523.1869               538.5601
 Red. masses --      6.3647                 3.6331                 5.1559
 Frc consts  --      0.9786                 0.5859                 0.8811
 IR Inten    --     14.2704                11.6795                 1.9626

                     19                     20                     21
                      A                      A                      A
 Frequencies --    556.4563               567.6814               592.2738
 Red. masses --      3.7505                 4.9727                 3.4194
 Frc consts  --      0.6842                 0.9442                 0.7067
 IR Inten    --      4.2988                 6.3263                 4.5151

                     22                     23                     24
                      A                      A                      A
 Frequencies --    599.6844               621.3909               633.0835
 Red. masses --      3.7997                 3.0072                 4.8172
 Frc consts  --      0.8051                 0.6841                 1.1375
 IR Inten    --      3.2012                 3.7550                 0.9863

                     25                     26                     27
                      A                      A                      A
 Frequencies --    645.5190               661.2449               669.8183
 Red. masses --      5.4772                 3.8477                 2.6946
 Frc consts  --      1.3447                 0.9912                 0.7123
 IR Inten    --      2.4522                10.2158                17.1144

                     28                     29                     30
                      A                      A                      A
 Frequencies --    709.9212               742.4175               778.9982
 Red. masses --      5.1455                 3.9639                 3.0849
 Frc consts  --      1.5279                 1.2873                 1.1030
 IR Inten    --     16.7166                15.0992                 6.4579

                     31                     32                     33
                      A                      A                      A
 Frequencies --    791.1623               799.8105               827.5381
 Red. masses --      1.3431                 4.3558                 2.1447
 Frc consts  --      0.4953                 1.6417                 0.8654
 IR Inten    --      1.3635                 0.7158                10.5264

                     34                     35                     36
                      A                      A                      A
 Frequencies --    828.9320               851.8005               853.7767
 Red. masses --      2.0162                 3.7125                 1.6450
 Frc consts  --      0.8163                 1.5870                 0.7065
 IR Inten    --     18.4274                 9.4975                 4.3014

                     37                     38                     39
                      A                      A                      A
 Frequencies --    885.1573               903.1038               945.4581
 Red. masses --      1.6206                 5.7820                 3.6893
 Frc consts  --      0.7481                 2.7785                 1.9430
 IR Inten    --     95.7250                 4.2964                 3.2022

                     40                     41                     42
                      A                      A                      A
 Frequencies --    967.7711               998.3995              1009.3997
 Red. masses --      1.4885                 1.3333                 1.3184
 Frc consts  --      0.8214                 0.7830                 0.7914
 IR Inten    --      0.9838                 0.1756                 1.1733

                     43                     44                     45
                      A                      A                      A
 Frequencies --   1013.5294              1024.2342              1049.7730
 Red. masses --      1.3272                 1.3589                 3.2009
 Frc consts  --      0.8033                 0.8399                 2.0783
 IR Inten    --      0.3402                 0.2894                17.5594

                     46                     47                     48
                      A                      A                      A
 Frequencies --   1085.7963              1105.4431              1160.1277
 Red. masses --      4.5159                 3.1406                 1.4347
 Frc consts  --      3.1368                 2.2612                 1.1377
 IR Inten    --      2.4308                23.6542                10.4418

                     49                     50                     51
                      A                      A                      A
 Frequencies --   1173.4502              1182.2588              1211.3688
 Red. masses --      1.3793                 1.2973                 2.4451
 Frc consts  --      1.1190                 1.0683                 2.1139
 IR Inten    --      1.7239                12.4250                 2.3697

                     52                     53                     54
                      A                      A                      A
 Frequencies --   1216.3112              1234.8446              1244.8108
 Red. masses --      2.7189                 1.9585                 1.7794
 Frc consts  --      2.3699                 1.7596                 1.6245
 IR Inten    --      2.9208                13.6536                 6.1340

                     55                     56                     57
                      A                      A                      A
 Frequencies --   1248.7811              1309.2817              1334.0021
 Red. masses --      1.9951                 3.3395                 5.6583
 Frc consts  --      1.8331                 3.3729                 5.9327
 IR Inten    --     23.2880                 6.1373                12.6495

                     58                     59                     60
                      A                      A                      A
 Frequencies --   1371.8367              1398.5912              1410.2560
 Red. masses --      3.3018                 1.6338                 2.8726
 Frc consts  --      3.6610                 1.8829                 3.3660
 IR Inten    --     64.9646                57.5431                44.4163

                     61                     62                     63
                      A                      A                      A
 Frequencies --   1435.3311              1442.3024              1455.8593
 Red. masses --      3.5736                 1.8577                 2.0521
 Frc consts  --      4.3378                 2.2768                 2.5626
 IR Inten    --     38.4540                 3.0301                 4.6160

                     64                     65                     66
                      A                      A                      A
 Frequencies --   1480.6737              1496.6757              1508.9846
 Red. masses --      2.9251                 5.4000                 6.1085
 Frc consts  --      3.7784                 7.1269                 8.1952
 IR Inten    --     27.8406                47.2540                62.6475

                     67                     68                     69
                      A                      A                      A
 Frequencies --   1524.7820              1528.4357              1612.5047
 Red. masses --      6.5964                 3.9616                 8.5197
 Frc consts  --      9.0359                 5.4528                13.0521
 IR Inten    --      6.8605                56.2008               322.2192

                     70                     71                     72
                      A                      A                      A
 Frequencies --   1650.0223              1685.5628              1709.2376
 Red. masses --      8.3505                 8.3286                 9.0911
 Frc consts  --     13.3950                13.9416                15.6484
 IR Inten    --     27.0518               123.6633                25.1562

                     73                     74                     75
                      A                      A                      A
 Frequencies --   1724.2155              1740.5155              3141.6728
 Red. masses --      8.9736                 9.6298                 1.0551
 Frc consts  --     15.7180                17.1879                 6.1359
 IR Inten    --    143.5332               133.5848                95.6806

                     76                     77                     78
                      A                      A                      A
 Frequencies --   3226.5459              3230.4327              3231.6943
 Red. masses --      1.1122                 1.0895                 1.0897
 Frc consts  --      6.8222                 6.6987                 6.7055
 IR Inten    --     31.2828                 0.7921                 0.2850

                     79                     80                     81
                      A                      A                      A
 Frequencies --   3233.6063              3242.9980              3246.4313
 Red. masses --      1.0886                 1.0903                 1.0953
 Frc consts  --      6.7066                 6.7560                 6.8013
 IR Inten    --      0.1346                 0.9084                 2.5828

                     82                     83                     84
                      A                      A                      A
 Frequencies --   3247.9058              3249.8256              3261.8987
 Red. masses --      1.0943                 1.0930                 1.0956
 Frc consts  --      6.8015                 6.8010                 6.8681
 IR Inten    --      0.6142                 0.6455                 1.3172

 - Thermochemistry -
 -------------------
 Temperature   298.150 Kelvin.  Pressure   1.00000 Atm.
 Atom     1 has atomic number  6 and mass  12.00000

 Molecular mass:   250.07825 amu.
 Principal axes and moments of inertia in atomic units:
                           1         2         3
     Eigenvalues --  3595.527943779.228647217.76776
           X            0.99639  -0.08492  -0.00144
           Y            0.08492   0.99639  -0.00095
           Z            0.00151   0.00082   1.00000
 This molecule is an asymmetric top.
 Rotational symmetry number  1.
 Warning -- assumption of classical behavior for rotation
           may cause significant error
 Rotational temperatures (Kelvin)      0.02409     0.02292     0.01200
 Rotational constants (GHZ):           0.50194     0.47754     0.25004
    1 imaginary frequencies ignored.
 Zero-point vibrational energy     600288.0 (Joules/Mol)
                                  143.47228 (Kcal/Mol)
 Warning -- explicit consideration of  21 degrees of freedom as
           vibrations may cause significant error
 Vibrational temperatures:    134.99   167.78   191.34   313.00   375.13
          (Kelvin)            406.75   426.32   488.24   543.21   583.80
                              601.54   616.53   625.29   661.18   735.00
                              752.75   774.87   800.62   816.77   852.15
                              862.81   894.04   910.87   928.76   951.38
                              963.72  1021.42  1068.17  1120.80  1138.31
                             1150.75  1190.64  1192.65  1225.55  1228.39
                             1273.54  1299.36  1360.30  1392.41  1436.47
                             1452.30  1458.24  1473.64  1510.39  1562.22
                             1590.49  1669.16  1688.33  1701.01  1742.89
                             1750.00  1776.67  1791.01  1796.72  1883.76
                             1919.33  1973.77  2012.26  2029.04  2065.12
                             2075.15  2094.66  2130.36  2153.38  2171.09
                             2193.82  2199.08  2320.03  2374.01  2425.15
                             2459.21  2480.76  2504.21  4520.17  4642.28
                             4647.87  4649.69  4652.44  4665.95  4670.89
                             4673.01  4675.77  4693.14

 Zero-point correction=                           0.228638 (Hartree/Particle)
 Thermal correction to Energy=                    0.240944
 Thermal correction to Enthalpy=                  0.241888
 Thermal correction to Gibbs Free Energy=         0.190209
 Sum of electronic and zero-point Energies=           -767.196380
 Sum of electronic and thermal Energies=              -767.184074
 Sum of electronic and thermal Enthalpies=            -767.183130
 Sum of electronic and thermal Free Energies=         -767.234809

                     E (Thermal)             CV                S
                      KCal/Mol        Cal/Mol-Kelvin    Cal/Mol-Kelvin
 Total                  151.195             54.645            108.768
 Electronic               0.000              0.000              1.377
 Translational            0.889              2.981             42.450
 Rotational               0.889              2.981             32.950
 Vibrational            149.417             48.683             31.990
 Vibration     1          0.603              1.954              3.579
 Vibration     2          0.608              1.936              3.156
 Vibration     3          0.613              1.920              2.902
 Vibration     4          0.646              1.814              1.979
 Vibration     5          0.669              1.745              1.657
 Vibration     6          0.682              1.706              1.517
 Vibration     7          0.690              1.681              1.438
 Vibration     8          0.719              1.597              1.215
 Vibration     9          0.748              1.518              1.049
 Vibration    10          0.771              1.458              0.942
 Vibration    11          0.781              1.431              0.898
 Vibration    12          0.790              1.408              0.864
 Vibration    13          0.795              1.395              0.844
 Vibration    14          0.817              1.340              0.767
 Vibration    15          0.866              1.226              0.632
 Vibration    16          0.878              1.199              0.603
 Vibration    17          0.894              1.165              0.568
 Vibration    18          0.912              1.126              0.531
 Vibration    19          0.924              1.101              0.509
 Vibration    20          0.950              1.048              0.463
 Vibration    21          0.958              1.032              0.450

 Optimization completed.
    -- Stationary point found.
 Normal termination of Gaussian 16 at Tue Aug 15 17:17:53 2023.
