 Gaussian 16, Revision C.02,
 Gaussian 16:  ES64L-G16RevC.02  7-Dec-2021

 ----------------------------------------------------------------
 #n M062X/6-31G scf=novaracc Opt=tight int=ultrafine freq=noraman
 ----------------------------------------------------------------

 -----------------
 Corannulene_aliph
 -----------------
 Symbolic Z-matrix:
 Charge =  1 Multiplicity = 2

 SCF Done:  E(UM062X) =  -767.283464189     A.U. after   25 cycles
 SCF Done:  E(UM062X) =  -767.308980053     A.U. after   18 cycles
 SCF Done:  E(UM062X) =  -767.313567502     A.U. after   17 cycles
 SCF Done:  E(UM062X) =  -767.315879223     A.U. after   17 cycles
 SCF Done:  E(UM062X) =  -767.320453421     A.U. after   19 cycles
 SCF Done:  E(UM062X) =  -767.322161011     A.U. after   16 cycles
 SCF Done:  E(UM062X) =  -767.324011084     A.U. after   17 cycles
 SCF Done:  E(UM062X) =  -767.324283687     A.U. after   16 cycles
 SCF Done:  E(UM062X) =  -767.324327538     A.U. after   14 cycles
 SCF Done:  E(UM062X) =  -767.324340155     A.U. after   15 cycles
 SCF Done:  E(UM062X) =  -767.324341955     A.U. after   12 cycles
 SCF Done:  E(UM062X) =  -767.324342302     A.U. after   10 cycles
 SCF Done:  E(UM062X) =  -767.324342340     A.U. after    7 cycles
 SCF Done:  E(UM062X) =  -767.324342344     A.U. after    8 cycles
 SCF Done:  E(UM062X) =  -767.324342346     A.U. after    5 cycles
 Optimization completed.
    -- Stationary point found.
 Normal termination of Gaussian 16 at Thu Jul 20 17:05:36 2023.

 -----------------------------------------------------------------
 #N Geom=AllCheck Guess=TCheck SCRF=Check GenChk UM062X/6-31G Freq
 -----------------------------------------------------------------

 Structure from the checkpoint file:  "corannulene_aliph.chk"
 -----------------
 Corannulene_aliph
 -----------------
 Charge =  1 Multiplicity = 2

                         Standard orientation:
 ---------------------------------------------------------------------
 Center     Atomic      Atomic             Coordinates (Angstroms)
 Number     Number       Type             X           Y           Z
 ---------------------------------------------------------------------
      1          6           0        0.343100   -1.154949   -0.561108
      2          6           0       -1.010537   -0.684790   -0.596232
      3          6           0       -0.956901    0.728264   -0.623377
      4          6           0        0.408584    1.119869   -0.625143
      5          6           0        1.207979   -0.052852   -0.607847
      6          6           0        0.757288   -2.415502   -0.059594
      7          6           0       -0.332760   -3.184100    0.270832
      8          6           0       -1.787281   -2.844263    0.239596
      9          6           0       -2.073896   -1.378143   -0.075997
     10          6           0       -3.213784   -0.585421    0.281439
     11          6           0       -3.158892    0.806924    0.262395
     12          6           0       -1.958325    1.524865   -0.106464
     13          6           0       -1.549574    2.873922    0.232118
     14          6           0       -0.216348    3.252381    0.233970
     15          6           0        0.839257    2.320487   -0.108202
     16          6           0        2.249379    2.344312    0.243886
     17          6           0        3.037275    1.198340    0.257911
     18          6           0        2.493664   -0.091781   -0.081337
     19          6           0        2.996869   -1.419669    0.250025
     20          6           0        2.181101   -2.527140    0.259935
     21          1           0       -2.272397   -3.502485   -0.503342
     22          1           0       -4.111610   -1.065791    0.653118
     23          1           0       -4.019398    1.360127    0.623636
     24          1           0       -2.293203    3.583424    0.577379
     25          1           0        0.043293    4.246187    0.581043
     26          1           0        2.689620    3.273414    0.591131
     27          1           0        4.058033    1.270638    0.614676
     28          1           0        4.027610   -1.526370    0.568095
     29          1           0        2.575020   -3.485964    0.572853
     30          1           0       -2.234140   -3.137726    1.200568
 ---------------------------------------------------------------------

 SCF Done:  E(UM062X) =  -767.324342346     A.U. after    1 cycles

 The electronic state is 2-A.
 Alpha  occ. eigenvalues --  -10.80005 -10.74762 -10.74567 -10.74038 -10.73944
 Alpha  occ. eigenvalues --  -10.73445 -10.72263 -10.71413 -10.71409 -10.71021
 Alpha  occ. eigenvalues --  -10.70952 -10.70797 -10.70564 -10.70428 -10.70344
 Alpha  occ. eigenvalues --  -10.70288 -10.69501 -10.69469 -10.69396 -10.69252
 Alpha  occ. eigenvalues --   -1.19222  -1.12898  -1.11961  -1.06787  -1.05763
 Alpha  occ. eigenvalues --   -1.05471  -0.99173  -0.98307  -0.96499  -0.96484
 Alpha  occ. eigenvalues --   -0.89844  -0.87283  -0.86402  -0.83262  -0.82395
 Alpha  occ. eigenvalues --   -0.80770  -0.74487  -0.73677  -0.73310  -0.72113
 Alpha  occ. eigenvalues --   -0.71468  -0.69127  -0.66881  -0.66305  -0.65077
 Alpha  occ. eigenvalues --   -0.64477  -0.64376  -0.63984  -0.63166  -0.61872
 Alpha  occ. eigenvalues --   -0.60921  -0.59790  -0.59030  -0.57413  -0.56451
 Alpha  occ. eigenvalues --   -0.55077  -0.53725  -0.53117  -0.51545  -0.50880
 Alpha  occ. eigenvalues --   -0.47840  -0.46201  -0.43055  -0.41726  -0.41472
 Alpha virt. eigenvalues --   -0.25943  -0.17282  -0.13714  -0.10850  -0.08778
 Alpha virt. eigenvalues --   -0.07758  -0.02555   0.00062   0.01656   0.03250
 Alpha virt. eigenvalues --    0.03443   0.04908   0.05048   0.05829   0.06620

  Beta  occ. eigenvalues --  -10.78881 -10.74693 -10.74605 -10.74028 -10.73895
  Beta  occ. eigenvalues --  -10.73460 -10.72219 -10.71429 -10.71428 -10.71030
  Beta  occ. eigenvalues --  -10.70947 -10.70802 -10.70569 -10.70415 -10.70336
  Beta  occ. eigenvalues --  -10.70268 -10.69498 -10.69471 -10.69398 -10.69247
  Beta  occ. eigenvalues --   -1.19007  -1.12154  -1.11948  -1.06309  -1.05401
  Beta  occ. eigenvalues --   -1.05391  -0.99009  -0.97878  -0.96484  -0.96084
  Beta  occ. eigenvalues --   -0.89388  -0.87139  -0.86014  -0.83065  -0.81912
  Beta  occ. eigenvalues --   -0.80210  -0.74375  -0.73369  -0.73024  -0.72016
  Beta  occ. eigenvalues --   -0.70193  -0.68586  -0.66444  -0.66163  -0.64929
  Beta  occ. eigenvalues --   -0.64449  -0.64263  -0.63830  -0.63008  -0.61476
  Beta  occ. eigenvalues --   -0.60645  -0.59616  -0.58958  -0.56670  -0.56206
  Beta  occ. eigenvalues --   -0.54961  -0.53553  -0.53107  -0.51058  -0.50924
  Beta  occ. eigenvalues --   -0.46359  -0.42726  -0.41615  -0.41423
  Beta virt. eigenvalues --   -0.23761  -0.19979  -0.17092  -0.13572  -0.10168
  Beta virt. eigenvalues --   -0.08898  -0.07725  -0.02544   0.00237   0.01687
  Beta virt. eigenvalues --    0.03210   0.03545   0.04894   0.05055   0.06180

 Mulliken charges and spin densities:
               1          2
     1  C   -0.118228   0.027963
     2  C    0.030871  -0.003527
     3  C   -0.059690   0.005369
     4  C   -0.071253   0.001331
     5  C   -0.034266   0.015391
     6  C    0.030919  -0.113654
     7  C    0.195052   1.129945
     8  C   -0.468799  -0.038604
     9  C    0.078490   0.019478
    10  C   -0.158416   0.010060
    11  C   -0.134246  -0.020975
    12  C    0.072333  -0.008129
    13  C   -0.137817   0.002893
    14  C   -0.137973  -0.009526
    15  C    0.073310   0.006329
    16  C   -0.130370  -0.033552
    17  C   -0.140075   0.011189
    18  C    0.071304  -0.025991
    19  C   -0.133264  -0.022798
    20  C   -0.099330   0.035579
    21  H    0.290143  -0.000188
    22  H    0.207191  -0.000235
    23  H    0.213979   0.001661
    24  H    0.205623  -0.000090
    25  H    0.205905   0.000546
    26  H    0.216427   0.001687
    27  H    0.212939  -0.000452
    28  H    0.220832   0.001566
    29  H    0.228384   0.000607
    30  H    0.270027   0.006128
 Sum of Mulliken charges =   1.00000   1.00000

 Dipole moment (field-independent basis, Debye):
    X=             -0.5247    Y=             -2.8732    Z=              2.5755  Tot=              3.8941
 Quadrupole moment (field-independent basis, Debye-Ang):
   XX=            -69.2492   YY=            -68.1168   ZZ=           -113.3686
   XY=              4.9217   XZ=             -0.1338   YZ=              1.5184

  Exact polarizability:     261.957      11.005     262.403      -0.693       3.166      71.625
 Approx polarizability:     375.706      30.446     392.105      -4.673       5.725     104.670

                      1                      2                      3
                      A                      A                      A
 Frequencies --    130.0183               139.9499               145.8422
 Red. masses --      3.6348                 4.5636                 4.9164
 Frc consts  --      0.0362                 0.0527                 0.0616
 IR Inten    --      0.9791                 3.4978                 6.1733

                      4                      5                      6
                      A                      A                      A
 Frequencies --    234.1519               283.1973               303.2763
 Red. masses --      2.4886                 4.5082                 4.7927
 Frc consts  --      0.0804                 0.2130                 0.2597
 IR Inten    --      3.7617                 0.1572                 0.5072

                      7                      8                      9
                      A                      A                      A
 Frequencies --    313.8119               342.7368               402.2387
 Red. masses --      3.5979                 3.3452                 5.8111
 Frc consts  --      0.2088                 0.2315                 0.5540
 IR Inten    --      0.7570                 6.7487                 5.3112

                     10                     11                     12
                      A                      A                      A
 Frequencies --    419.6646               434.5267               446.7385
 Red. masses --      6.0482                 7.3547                 7.2566
 Frc consts  --      0.6276                 0.8182                 0.8533
 IR Inten    --      0.9118                 6.2892                 0.8353

                     13                     14                     15
                      A                      A                      A
 Frequencies --    454.3900               478.6600               552.1438
 Red. masses --      4.2020                 3.4788                 4.2772
 Frc consts  --      0.5112                 0.4696                 0.7683
 IR Inten    --      0.5950                 5.3489                 8.2497

                     16                     17                     18
                      A                      A                      A
 Frequencies --    555.5107               562.6091               579.2380
 Red. masses --      4.1946                 4.0298                 3.8606
 Frc consts  --      0.7626                 0.7515                 0.7632
 IR Inten    --      1.4395                10.9776                 0.4864

                     19                     20                     21
                      A                      A                      A
 Frequencies --    604.6065               627.7502               635.1154
 Red. masses --      6.2188                 4.7155                 6.0673
 Frc consts  --      1.3394                 1.0948                 1.4420
 IR Inten    --      2.8074                 3.3941                 1.5164

                     22                     23                     24
                      A                      A                      A
 Frequencies --    653.0508               656.6929               667.0952
 Red. masses --      6.0658                 8.0673                 3.7560
 Frc consts  --      1.5242                 2.0498                 0.9848
 IR Inten    --      3.0152                 1.3721                14.7048

                     25                     26                     27
                      A                      A                      A
 Frequencies --    688.8316               758.1623               763.0656
 Red. masses --      3.6902                 6.2872                 5.4303
 Frc consts  --      1.0316                 2.1293                 1.8629
 IR Inten    --      8.8932                 3.5380                 1.4008

                     28                     29                     30
                      A                      A                      A
 Frequencies --    784.0011               813.4633               819.6990
 Red. masses --      3.2563                 1.3173                 4.2310
 Frc consts  --      1.1793                 0.5136                 1.6749
 IR Inten    --      2.1918                 3.3925                 1.2745

                     31                     32                     33
                      A                      A                      A
 Frequencies --    851.4539               867.8869               870.0580
 Red. masses --      2.0862                 5.2446                 5.2105
 Frc consts  --      0.8911                 2.3275                 2.3240
 IR Inten    --      9.0818                 5.8790                 3.8796

                     34                     35                     36
                      A                      A                      A
 Frequencies --    880.0137               908.5156               919.1750
 Red. masses --      2.0433                 1.8772                 2.0813
 Frc consts  --      0.9323                 0.9129                 1.0361
 IR Inten    --      5.6103                51.8703                84.2337

                     37                     38                     39
                      A                      A                      A
 Frequencies --    946.2345              1020.0855              1040.6191
 Red. masses --      4.9333                 4.2993                 1.3411
 Frc consts  --      2.6025                 2.6359                 0.8557
 IR Inten    --      2.2005                 8.9249                 0.0698

                     40                     41                     42
                      A                      A                      A
 Frequencies --   1048.1623              1054.2393              1062.5965
 Red. masses --      1.3708                 1.3859                 1.4080
 Frc consts  --      0.8873                 0.9075                 0.9367
 IR Inten    --      1.7052                 0.6074                 0.6475

                     43                     44                     45
                      A                      A                      A
 Frequencies --   1069.9488              1101.3951              1122.9725
 Red. masses --      3.6154                 4.4964                 4.2120
 Frc consts  --      2.4386                 3.2136                 3.1295
 IR Inten    --      0.5009                24.8748                10.9428

                     46                     47                     48
                      A                      A                      A
 Frequencies --   1172.3840              1192.4690              1195.9948
 Red. masses --      1.1480                 2.1182                 1.4117
 Frc consts  --      0.9296                 1.7747                 1.1897
 IR Inten    --      7.2996                 3.6745                11.1240

                     49                     50                     51
                      A                      A                      A
 Frequencies --   1202.1476              1210.5922              1230.4371
 Red. masses --      1.4126                 1.7834                 2.4880
 Frc consts  --      1.2027                 1.5399                 2.2193
 IR Inten    --      1.5452                 0.7903                14.4172

                     52                     53                     54
                      A                      A                      A
 Frequencies --   1248.4885              1265.3535              1270.6703
 Red. masses --      2.0078                 1.7499                 1.7167
 Frc consts  --      1.8439                 1.6508                 1.6331
 IR Inten    --      1.8486                20.8185                 6.6753

                     55                     56                     57
                      A                      A                      A
 Frequencies --   1320.6722              1344.1702              1369.8548
 Red. masses --      2.0204                 3.7365                 4.2318
 Frc consts  --      2.0762                 3.9776                 4.6787
 IR Inten    --     19.0302                 0.3120                 9.0039

                     58                     59                     60
                      A                      A                      A
 Frequencies --   1408.3942              1420.5825              1439.2595
 Red. masses --      3.2981                 1.3190                 2.9454
 Frc consts  --      3.8545                 1.5683                 3.5947
 IR Inten    --     35.2838               101.7831               171.2544

                     61                     62                     63
                      A                      A                      A
 Frequencies --   1444.9154              1451.2610              1471.2029
 Red. masses --      2.2485                 2.9415                 1.8437
 Frc consts  --      2.7658                 3.6502                 2.3511
 IR Inten    --     34.6021                52.6459                 6.7225

                     64                     65                     66
                      A                      A                      A
 Frequencies --   1495.9959              1501.7008              1527.4705
 Red. masses --      3.7627                 3.2073                 6.3086
 Frc consts  --      4.9615                 4.2614                 8.6722
 IR Inten    --    101.4870                 6.1921                57.6773

                     67                     68                     69
                      A                      A                      A
 Frequencies --   1528.5296              1535.0695              1568.2931
 Red. masses --      3.9300                 4.6721                 6.3339
 Frc consts  --      5.4100                 6.4866                 9.1786
 IR Inten    --     12.3188                11.4750               119.3718

                     70                     71                     72
                      A                      A                      A
 Frequencies --   1628.3538              1681.9419              1711.4313
 Red. masses --      8.9969                 7.9499                 8.8614
 Frc consts  --     14.0553                13.2505                15.2922
 IR Inten    --    146.4261               198.0877                19.6759

                     73                     74                     75
                      A                      A                      A
 Frequencies --   1718.3137              1722.3435              3024.2547
 Red. masses --      8.2331                 8.9768                 1.0666
 Frc consts  --     14.3224                15.6895                 5.7478
 IR Inten    --     16.6648                12.6438                65.0762

                     76                     77                     78
                      A                      A                      A
 Frequencies --   3082.0575              3238.2655              3239.7242
 Red. masses --      1.0871                 1.0900                 1.0893
 Frc consts  --      6.0841                 6.7344                 6.7363
 IR Inten    --      9.6134                 0.3588                 0.0843

                     79                     80                     81
                      A                      A                      A
 Frequencies --   3241.3420              3249.5517              3255.2859
 Red. masses --      1.0887                 1.0901                 1.0956
 Frc consts  --      6.7392                 6.7822                 6.8401
 IR Inten    --      0.1196                 1.1639                 1.7152

                     82                     83                     84
                      A                      A                      A
 Frequencies --   3256.4856              3257.7735              3270.7347
 Red. masses --      1.0961                 1.0951                 1.0961
 Frc consts  --      6.8485                 6.8474                 6.9088
 IR Inten    --      2.7795                 0.9696                 0.9925

 - Thermochemistry -
 -------------------
 Temperature   298.150 Kelvin.  Pressure   1.00000 Atm.
 Atom     1 has atomic number  6 and mass  12.00000

 Molecular mass:   250.07825 amu.
 Principal axes and moments of inertia in atomic units:
                           1         2         3
     Eigenvalues --  3522.060613613.499486889.22572
           X            0.98282   0.18457  -0.00021
           Y           -0.18457   0.98281   0.00276
           Z            0.00072  -0.00268   1.00000
 This molecule is an asymmetric top.
 Rotational symmetry number  1.
 Warning -- assumption of classical behavior for rotation
           may cause significant error
 Rotational temperatures (Kelvin)      0.02459     0.02397     0.01257
 Rotational constants (GHZ):           0.51241     0.49944     0.26197
 Zero-point vibrational energy     618513.4 (Joules/Mol)
                                  147.82825 (Kcal/Mol)
 Warning -- explicit consideration of  19 degrees of freedom as
           vibrations may cause significant error
 Vibrational temperatures:    187.07   201.36   209.83   336.89   407.46
          (Kelvin)            436.35   451.51   493.12   578.73   603.80
                              625.19   642.76   653.77   688.68   794.41
                              799.26   809.47   833.39   869.89   903.19
                              913.79   939.59   944.83   959.80   991.08
                             1090.83  1097.88  1128.00  1170.39  1179.36
                             1225.05  1248.70  1251.82  1266.14  1307.15
                             1322.49  1361.42  1467.68  1497.22  1508.07
                             1516.82  1528.84  1539.42  1584.66  1615.71
                             1686.80  1715.70  1720.77  1729.62  1741.77
                             1770.32  1796.30  1820.56  1828.21  1900.15
                             1933.96  1970.92  2026.37  2043.90  2070.77
                             2078.91  2088.04  2116.73  2152.40  2160.61
                             2197.69  2199.21  2208.62  2256.42  2342.84
                             2419.94  2462.37  2472.27  2478.07  4351.23
                             4434.39  4659.14  4661.24  4663.57  4675.38
                             4683.63  4685.36  4687.21  4705.86

 Zero-point correction=                           0.235579 (Hartree/Particle)
 Thermal correction to Energy=                    0.247142
 Thermal correction to Enthalpy=                  0.248086
 Thermal correction to Gibbs Free Energy=         0.197992
 Sum of electronic and zero-point Energies=           -767.088763
 Sum of electronic and thermal Energies=              -767.077200
 Sum of electronic and thermal Enthalpies=            -767.076256
 Sum of electronic and thermal Free Energies=         -767.126351

                     E (Thermal)             CV                S
                      KCal/Mol        Cal/Mol-Kelvin    Cal/Mol-Kelvin
 Total                  155.084             52.115            105.433
 Electronic               0.000              0.000              1.377
 Translational            0.889              2.981             42.450
 Rotational               0.889              2.981             32.839
 Vibrational            153.307             46.154             28.767
 Vibration     1          0.612              1.923              2.946
 Vibration     2          0.615              1.913              2.805
 Vibration     3          0.617              1.907              2.726
 Vibration     4          0.654              1.789              1.847
 Vibration     5          0.682              1.705              1.514
 Vibration     6          0.695              1.667              1.399
 Vibration     7          0.702              1.647              1.342
 Vibration     8          0.722              1.590              1.199
 Vibration     9          0.768              1.465              0.954
 Vibration    10          0.782              1.428              0.893
 Vibration    11          0.795              1.395              0.844
 Vibration    12          0.806              1.368              0.806
 Vibration    13          0.813              1.351              0.783
 Vibration    14          0.835              1.297              0.714
 Vibration    15          0.907              1.135              0.540
 Vibration    16          0.911              1.128              0.533
 Vibration    17          0.918              1.112              0.519
 Vibration    18          0.936              1.076              0.487
 Vibration    19          0.963              1.022              0.442

 Optimization completed.
    -- Stationary point found.
 Normal termination of Gaussian 16 at Thu Jul 20 17:08:34 2023.
