 Gaussian 16, Revision C.02,
 Gaussian 16:  ES64L-G16RevC.02  7-Dec-2021

 ----------------------------------------------------------------------
 #n M062x/6-31G(d) scf=novaracc Opt(ts,calcfc,noeigentest,modredundant)
  int=ultrafine freq=noraman
 ----------------------------------------------------------------------

 -----------------------
 Corannulene ts to aliph
 -----------------------
 Symbolic Z-matrix:
 Charge =  1 Multiplicity = 2

 SCF Done:  E(UM062X) =  -767.418660165     A.U. after   22 cycles
 SCF Done:  E(UM062X) =  -767.441042964     A.U. after   17 cycles
 SCF Done:  E(UM062X) =  -767.455069196     A.U. after   17 cycles
 SCF Done:  E(UM062X) =  -767.458898148     A.U. after   17 cycles
 SCF Done:  E(UM062X) =  -767.458757672     A.U. after   15 cycles
 SCF Done:  E(UM062X) =  -767.452144892     A.U. after   18 cycles
 SCF Done:  E(UM062X) =  -767.458381489     A.U. after   17 cycles
 SCF Done:  E(UM062X) =  -767.459184021     A.U. after   17 cycles
 SCF Done:  E(UM062X) =  -767.459242312     A.U. after   13 cycles
 SCF Done:  E(UM062X) =  -767.459247131     A.U. after   11 cycles
 SCF Done:  E(UM062X) =  -767.459247331     A.U. after    9 cycles
 Optimization completed.
    -- Stationary point found.
 Normal termination of Gaussian 16 at Fri Aug  4 15:34:17 2023.

 --------------------------------------------------------------------
 #N Geom=AllCheck Guess=TCheck SCRF=Check GenChk UM062X/6-31G(d) Freq
 --------------------------------------------------------------------

 Structure from the checkpoint file:  "cora+_ts_to_aliph.chk"
 -----------------------
 Corannulene ts to aliph
 -----------------------
 Charge =  1 Multiplicity = 2

                         Standard orientation:
 ---------------------------------------------------------------------
 Center     Atomic      Atomic             Coordinates (Angstroms)
 Number     Number       Type             X           Y           Z
 ---------------------------------------------------------------------
      1          6           0       -0.426098   -1.146035    0.596357
      2          6           0        0.951002   -0.751913    0.590889
      3          6           0        0.996412    0.655761    0.620057
      4          6           0       -0.335396    1.135949    0.623562
      5          6           0       -1.211757    0.023476    0.616723
      6          6           0       -0.911807   -2.346271    0.095431
      7          6           0        0.184389   -3.210999   -0.195279
      8          6           0        1.569928   -2.882269   -0.218513
      9          6           0        1.985070   -1.512834    0.090371
     10          6           0        3.186011   -0.800559   -0.260378
     11          6           0        3.213329    0.582469   -0.249280
     12          6           0        2.053931    1.372998    0.097235
     13          6           0        1.738590    2.743060   -0.242575
     14          6           0        0.437609    3.208104   -0.242860
     15          6           0       -0.684376    2.358431    0.100862
     16          6           0       -2.085165    2.484189   -0.247469
     17          6           0       -2.943694    1.401081   -0.251262
     18          6           0       -2.487575    0.072622    0.089104
     19          6           0       -3.056786   -1.210767   -0.258244
     20          6           0       -2.308052   -2.370738   -0.266863
     21          1           0        2.283790   -3.683898   -0.407556
     22          1           0        4.059656   -1.344137   -0.605210
     23          1           0        4.113406    1.081331   -0.596655
     24          1           0        2.528086    3.401672   -0.591382
     25          1           0        0.250030    4.218261   -0.595242
     26          1           0       -2.460055    3.440569   -0.600777
     27          1           0       -3.960639    1.542012   -0.604187
     28          1           0       -4.083931   -1.259958   -0.607480
     29          1           0       -2.758961   -3.297262   -0.604587
     30          1           0        0.835224   -2.933132   -1.314119
 ---------------------------------------------------------------------

 SCF Done:  E(UM062X) =  -767.459247331     A.U. after    1 cycles

 The electronic state is 2-A.
 Alpha  occ. eigenvalues --  -10.81419 -10.79526 -10.74354 -10.73940 -10.72472
 Alpha  occ. eigenvalues --  -10.71552 -10.71431 -10.71361 -10.71082 -10.71065
 Alpha  occ. eigenvalues --  -10.70864 -10.70752 -10.70211 -10.69757 -10.69527
 Alpha  occ. eigenvalues --  -10.69373 -10.69262 -10.69213 -10.68975 -10.68654
 Alpha  occ. eigenvalues --   -1.19440  -1.14594  -1.11459  -1.07629  -1.05172
 Alpha  occ. eigenvalues --   -1.05069  -0.99530  -0.98246  -0.96047  -0.95760
 Alpha  occ. eigenvalues --   -0.88530  -0.87753  -0.86159  -0.82747  -0.82176
 Alpha  occ. eigenvalues --   -0.80082  -0.75608  -0.74347  -0.72821  -0.72240
 Alpha  occ. eigenvalues --   -0.71430  -0.69733  -0.66962  -0.65495  -0.64430
 Alpha  occ. eigenvalues --   -0.63861  -0.63736  -0.63285  -0.62535  -0.61374
 Alpha  occ. eigenvalues --   -0.60707  -0.59244  -0.58536  -0.56761  -0.55209
 Alpha  occ. eigenvalues --   -0.54642  -0.53033  -0.52560  -0.51172  -0.50520
 Alpha  occ. eigenvalues --   -0.49371  -0.44654  -0.42919  -0.41269  -0.41058
 Alpha virt. eigenvalues --   -0.21102  -0.18659  -0.13116  -0.11536  -0.08853
 Alpha virt. eigenvalues --   -0.07734  -0.06130  -0.01029  -0.00182   0.01714
 Alpha virt. eigenvalues --    0.03243   0.03674   0.05094   0.05885   0.06712

  Beta  occ. eigenvalues --  -10.80395 -10.79502 -10.74337 -10.73879 -10.72398
  Beta  occ. eigenvalues --  -10.71557 -10.71428 -10.71341 -10.71085 -10.71060
  Beta  occ. eigenvalues --  -10.70873 -10.70751 -10.70211 -10.69756 -10.69529
  Beta  occ. eigenvalues --  -10.69375 -10.69261 -10.69199 -10.68971 -10.68646
  Beta  occ. eigenvalues --   -1.18846  -1.13689  -1.11327  -1.07167  -1.05130
  Beta  occ. eigenvalues --   -1.04794  -0.99177  -0.97830  -0.95940  -0.95653
  Beta  occ. eigenvalues --   -0.88087  -0.87250  -0.85893  -0.82498  -0.81773
  Beta  occ. eigenvalues --   -0.79693  -0.74873  -0.74100  -0.72601  -0.72075
  Beta  occ. eigenvalues --   -0.70965  -0.68609  -0.66481  -0.65377  -0.64043
  Beta  occ. eigenvalues --   -0.63659  -0.63616  -0.63038  -0.62389  -0.61055
  Beta  occ. eigenvalues --   -0.60259  -0.59185  -0.58419  -0.55509  -0.55054
  Beta  occ. eigenvalues --   -0.54543  -0.52953  -0.52445  -0.50666  -0.50505
  Beta  occ. eigenvalues --   -0.45040  -0.42715  -0.41235  -0.40999
  Beta virt. eigenvalues --   -0.23768  -0.19902  -0.18166  -0.12783  -0.10895
  Beta virt. eigenvalues --   -0.08853  -0.07611  -0.05586  -0.00857   0.00064
  Beta virt. eigenvalues --    0.01822   0.03296   0.03742   0.05097   0.05953

 Mulliken charges and spin densities:
               1          2
     1  C   -0.011956   0.041779
     2  C   -0.023873  -0.002925
     3  C   -0.036664   0.003020
     4  C   -0.043808   0.008483
     5  C   -0.044470   0.007144
     6  C    0.078157  -0.019089
     7  C    0.009251   0.951412
     8  C   -0.358619  -0.004457
     9  C    0.157133   0.035400
    10  C   -0.184981   0.003146
    11  C   -0.178567  -0.002021
    12  C    0.127563  -0.005495
    13  C   -0.186068   0.001067
    14  C   -0.180015  -0.003949
    15  C    0.123636  -0.000457
    16  C   -0.178185   0.002123
    17  C   -0.187032  -0.002233
    18  C    0.133119   0.003682
    19  C   -0.183496  -0.013307
    20  C   -0.169736   0.017624
    21  H    0.301206   0.010738
    22  H    0.214681   0.000052
    23  H    0.219057   0.000728
    24  H    0.210415  -0.000022
    25  H    0.212341   0.000260
    26  H    0.213727  -0.000112
    27  H    0.211434   0.000068
    28  H    0.221250   0.000660
    29  H    0.225032   0.002134
    30  H    0.309470  -0.035453
 Sum of Mulliken charges =   1.00000   1.00000

 Dipole moment (field-independent basis, Debye):
    X=              1.4157    Y=             -3.8568    Z=             -3.3518  Tot=              5.3022
 Quadrupole moment (field-independent basis, Debye-Ang):
   XX=            -71.3480   YY=            -65.3144   ZZ=           -111.9074
   XY=             -5.3466   XZ=             -0.9023   YZ=              2.4825

  Exact polarizability:     256.194      -4.041     257.500       0.046      -0.513      75.999
 Approx polarizability:     373.616      -9.375     391.570      -0.291      -0.733     123.507

 ******    1 imaginary frequencies (negative Signs) ******

                      1                      2                      3
                      A                      A                      A
 Frequencies --  -1006.8156               136.4444               138.4849
 Red. masses --      1.2948                 4.2624                 4.5444
 Frc consts  --      0.7733                 0.0468                 0.0513
 IR Inten    --     66.7812                 0.3140                 0.7772

                      4                      5                      6
                      A                      A                      A
 Frequencies --    143.7911               268.8535               277.6673
 Red. masses --      4.6737                 3.9116                 4.4538
 Frc consts  --      0.0569                 0.1666                 0.2023
 IR Inten    --      9.5150                 1.1861                 0.2134

                      7                      8                      9
                      A                      A                      A
 Frequencies --    306.2778               309.6234               402.2213
 Red. masses --      3.9883                 4.2510                 5.7906
 Frc consts  --      0.2204                 0.2401                 0.5520
 IR Inten    --      0.8151                 0.1736                 2.7672

                     10                     11                     12
                      A                      A                      A
 Frequencies --    415.1561               428.6587               436.6330
 Red. masses --      6.0492                 7.5894                 7.8262
 Frc consts  --      0.6143                 0.8216                 0.8791
 IR Inten    --      1.8246                 1.2991                 0.3419

                     13                     14                     15
                      A                      A                      A
 Frequencies --    446.0034               453.1989               533.9031
 Red. masses --      4.2582                 4.1499                 3.1104
 Frc consts  --      0.4991                 0.5022                 0.5224
 IR Inten    --      2.4059                 2.1026                 8.6244

                     16                     17                     18
                      A                      A                      A
 Frequencies --    544.6933               549.3727               551.6908
 Red. masses --      4.3866                 4.1406                 4.4295
 Frc consts  --      0.7668                 0.7363                 0.7943
 IR Inten    --      0.3061                 6.2369                 4.3549

                     19                     20                     21
                      A                      A                      A
 Frequencies --    599.3406               611.2033               614.7343
 Red. masses --      4.5219                 5.2263                 4.8223
 Frc consts  --      0.9570                 1.1503                 1.0737
 IR Inten    --      0.6764                 0.0931                 1.4592

                     22                     23                     24
                      A                      A                      A
 Frequencies --    639.0254               644.9685               652.5652
 Red. masses --      8.6766                 5.8323                 4.8824
 Frc consts  --      2.0876                 1.4294                 1.2250
 IR Inten    --      0.4974                 0.8638                 3.3480

                     25                     26                     27
                      A                      A                      A
 Frequencies --    662.4749               671.3926               744.9827
 Red. masses --      3.7983                 3.9311                 5.7977
 Frc consts  --      0.9822                 1.0441                 1.8958
 IR Inten    --     16.5532                19.7315                 4.4027

                     28                     29                     30
                      A                      A                      A
 Frequencies --    755.5284               777.8132               791.3896
 Red. masses --      5.5815                 1.7969                 2.1780
 Frc consts  --      1.8772                 0.6405                 0.8037
 IR Inten    --      7.6294                 1.6331                 0.6296

                     31                     32                     33
                      A                      A                      A
 Frequencies --    801.0009               819.9999               843.9180
 Red. masses --      2.3033                 3.4126                 1.8006
 Frc consts  --      0.8707                 1.3520                 0.7556
 IR Inten    --      2.9736                 3.1136                 8.4342

                     34                     35                     36
                      A                      A                      A
 Frequencies --    860.8415               870.0433               878.6018
 Red. masses --      1.9361                 4.9834                 3.8500
 Frc consts  --      0.8453                 2.2226                 1.7510
 IR Inten    --      4.3113                 7.1702                 4.2699

                     37                     38                     39
                      A                      A                      A
 Frequencies --    885.3360               924.9275              1003.5237
 Red. masses --      1.7345                 5.4459                 1.3044
 Frc consts  --      0.8010                 2.7450                 0.7739
 IR Inten    --     99.4423                 1.7676                 0.0482

                     40                     41                     42
                      A                      A                      A
 Frequencies --   1007.0428              1014.1415              1022.1332
 Red. masses --      1.3135                 1.3287                 1.3444
 Frc consts  --      0.7849                 0.8051                 0.8275
 IR Inten    --      1.1811                 0.3470                 0.3281

                     43                     44                     45
                      A                      A                      A
 Frequencies --   1052.7682              1078.4141              1098.7265
 Red. masses --      2.8769                 3.7536                 4.0887
 Frc consts  --      1.8786                 2.5720                 2.9082
 IR Inten    --      3.5184                 7.8546                 0.5100

                     46                     47                     48
                      A                      A                      A
 Frequencies --   1154.4377              1174.3416              1182.2816
 Red. masses --      1.4820                 1.3950                 1.2890
 Frc consts  --      1.1637                 1.1334                 1.0616
 IR Inten    --      5.3481                 3.6215                 0.5778

                     49                     50                     51
                      A                      A                      A
 Frequencies --   1183.6221              1200.1932              1209.6100
 Red. masses --      1.2443                 2.0642                 3.4758
 Frc consts  --      1.0271                 1.7519                 2.9964
 IR Inten    --      4.0673                 9.7284                 9.8174

                     52                     53                     54
                      A                      A                      A
 Frequencies --   1219.8308              1234.0506              1246.2802
 Red. masses --      2.0706                 1.8584                 1.5834
 Frc consts  --      1.8153                 1.6674                 1.4490
 IR Inten    --     10.3497                 0.1404                 0.9819

                     55                     56                     57
                      A                      A                      A
 Frequencies --   1263.3633              1333.8256              1350.6594
 Red. masses --      1.8691                 4.9544                 3.4301
 Frc consts  --      1.7576                 5.1932                 3.6868
 IR Inten    --      4.5294                 8.2626                 8.2377

                     58                     59                     60
                      A                      A                      A
 Frequencies --   1387.4552              1392.4540              1407.0091
 Red. masses --      2.1768                 3.8080                 4.2564
 Frc consts  --      2.4689                 4.3502                 4.9646
 IR Inten    --      0.7282               118.9530                21.9431

                     61                     62                     63
                      A                      A                      A
 Frequencies --   1440.1778              1453.7937              1470.1389
 Red. masses --      2.3629                 3.0165                 4.7292
 Frc consts  --      2.8875                 3.7563                 6.0222
 IR Inten    --      0.1562                60.4160                30.7487

                     64                     65                     66
                      A                      A                      A
 Frequencies --   1481.9676              1484.9622              1499.4229
 Red. masses --      3.1406                 4.2613                 3.5152
 Frc consts  --      4.0639                 5.5363                 4.6564
 IR Inten    --     33.5646                14.6925                20.0300

                     67                     68                     69
                      A                      A                      A
 Frequencies --   1511.5796              1528.2244              1543.9061
 Red. masses --      6.6834                 4.1704                 5.9844
 Frc consts  --      8.9972                 5.7386                 8.4045
 IR Inten    --     23.6318                 5.9830                 1.0777

                     70                     71                     72
                      A                      A                      A
 Frequencies --   1652.1467              1684.6315              1698.8471
 Red. masses --      8.8102                 8.5773                 8.0258
 Frc consts  --     14.1689                14.3420                13.6473
 IR Inten    --     31.0806                 5.7402                43.2982

                     73                     74                     75
                      A                      A                      A
 Frequencies --   1706.8617              1714.3441              2127.9349
 Red. masses --      9.0154                 8.4702                 1.0638
 Frc consts  --     15.4750                14.6669                 2.8380
 IR Inten    --      7.9371                12.9536                13.3386

                     76                     77                     78
                      A                      A                      A
 Frequencies --   3209.4423              3230.4268              3231.9202
 Red. masses --      1.0892                 1.0893                 1.0887
 Frc consts  --      6.6103                 6.6973                 6.7000
 IR Inten    --     25.1520                 0.3724                 0.2204

                     79                     80                     81
                      A                      A                      A
 Frequencies --   3234.0939              3238.2389              3245.2834
 Red. masses --      1.0893                 1.0901                 1.0951
 Frc consts  --      6.7130                 6.7347                 6.7953
 IR Inten    --      0.2580                 0.6409                 2.3105

                     82                     83                     84
                      A                      A                      A
 Frequencies --   3245.9744              3249.5573              3258.3353
 Red. masses --      1.0947                 1.0949                 1.0947
 Frc consts  --      6.7959                 6.8122                 6.8475
 IR Inten    --      1.5187                 0.5529                 0.4507

 - Thermochemistry -
 -------------------
 Temperature   298.150 Kelvin.  Pressure   1.00000 Atm.
 Atom     1 has atomic number  6 and mass  12.00000

 Molecular mass:   250.07825 amu.
 Principal axes and moments of inertia in atomic units:
                           1         2         3
     Eigenvalues --  3478.319463590.755866821.67877
           X            0.99677  -0.08036  -0.00062
           Y            0.08036   0.99677   0.00080
           Z            0.00056  -0.00085   1.00000
 This molecule is an asymmetric top.
 Rotational symmetry number  1.
 Warning -- assumption of classical behavior for rotation
           may cause significant error
 Rotational temperatures (Kelvin)      0.02490     0.02412     0.01270
 Rotational constants (GHZ):           0.51885     0.50261     0.26456
    1 imaginary frequencies ignored.
 Zero-point vibrational energy     602625.6 (Joules/Mol)
                                  144.03098 (Kcal/Mol)
 Warning -- explicit consideration of  20 degrees of freedom as
           vibrations may cause significant error
 Vibrational temperatures:    196.31   199.25   206.88   386.82   399.50
          (Kelvin)            440.67   445.48   578.71   597.32   616.74
                              628.22   641.70   652.05   768.17   783.69
                              790.42   793.76   862.32   879.39   884.47
                              919.42   927.97   938.90   953.15   965.98
                             1071.86  1087.04  1119.10  1138.63  1152.46
                             1179.80  1214.21  1238.56  1251.80  1264.11
                             1273.80  1330.76  1443.85  1448.91  1459.12
                             1470.62  1514.70  1551.60  1580.82  1660.98
                             1689.62  1701.04  1702.97  1726.81  1740.36
                             1755.06  1775.52  1793.12  1817.70  1919.08
                             1943.30  1996.24  2003.43  2024.37  2072.09
                             2091.68  2115.20  2132.22  2136.53  2157.34
                             2174.83  2198.77  2221.34  2377.07  2423.81
                             2444.26  2455.79  2466.56  3061.62  4617.67
                             4647.86  4650.01  4653.14  4659.10  4669.24
                             4670.23  4675.39  4688.02

 Zero-point correction=                           0.229528 (Hartree/Particle)
 Thermal correction to Energy=                    0.241011
 Thermal correction to Enthalpy=                  0.241956
 Thermal correction to Gibbs Free Energy=         0.192090
 Sum of electronic and zero-point Energies=           -767.229719
 Sum of electronic and thermal Energies=              -767.218236
 Sum of electronic and thermal Enthalpies=            -767.217292
 Sum of electronic and thermal Free Energies=         -767.267157

                     E (Thermal)             CV                S
                      KCal/Mol        Cal/Mol-Kelvin    Cal/Mol-Kelvin
 Total                  151.237             52.277            104.951
 Electronic               0.000              0.000              1.377
 Translational            0.889              2.981             42.450
 Rotational               0.889              2.981             32.810
 Vibrational            149.460             46.315             28.313
 Vibration     1          0.614              1.917              2.853
 Vibration     2          0.614              1.915              2.825
 Vibration     3          0.616              1.909              2.753
 Vibration     4          0.673              1.730              1.604
 Vibration     5          0.679              1.715              1.548
 Vibration     6          0.697              1.662              1.382
 Vibration     7          0.699              1.655              1.364
 Vibration     8          0.768              1.465              0.955
 Vibration     9          0.779              1.437              0.909
 Vibration    10          0.790              1.408              0.863
 Vibration    11          0.797              1.390              0.837
 Vibration    12          0.805              1.370              0.808
 Vibration    13          0.812              1.354              0.786
 Vibration    14          0.889              1.175              0.579
 Vibration    15          0.900              1.151              0.555
 Vibration    16          0.905              1.141              0.545
 Vibration    17          0.907              1.136              0.541
 Vibration    18          0.957              1.033              0.451
 Vibration    19          0.970              1.008              0.431
 Vibration    20          0.974              1.001              0.425

 Optimization completed.
    -- Stationary point found.
 Normal termination of Gaussian 16 at Fri Aug  4 15:44:49 2023.
